
.Version 9.5.2 of ABINIT 
.(MPI version, prepared for a x86_64_linux_intel19.1 computer) 

.Copyright (C) 1998-2021 ABINIT group . 
 ABINIT comes with ABSOLUTELY NO WARRANTY.
 It is free software, and you are welcome to redistribute it
 under certain conditions (GNU General Public License,
 see ~abinit/COPYING or http://www.gnu.org/copyleft/gpl.txt).

 ABINIT is a project of the Universite Catholique de Louvain,
 Corning Inc. and other collaborators, see ~abinit/doc/developers/contributors.txt .
 Please read https://docs.abinit.org/theory/acknowledgments for suggested
 acknowledgments of the ABINIT effort.
 For more information, see https://www.abinit.org .

.Starting date : Wed 26 May 2021.
- ( at 02h32 )
  
- input  file    -> /scratch/users/j/a/jabreu/flow_simple_11atoms/flow/w239/t1/run.abi
- output file    -> /scratch/users/j/a/jabreu/flow_simple_11atoms/flow/w239/t1/run.abo
- root for input  files -> /scratch/users/j/a/jabreu/flow_simple_11atoms/flow/w239/t1/indata/in
- root for output files -> /scratch/users/j/a/jabreu/flow_simple_11atoms/flow/w239/t1/outdata/out
 
 
 Symmetries : space group I4/m c m (#140); Bravais tI (body-center tetrag.)
================================================================================
 Values of the parameters that define the memory need of the present run (RF).
     intxc =       0      iscf =       7    lmnmax =      18     lnmax =       6
     mgfft =      75  mpssoang =       3    mqgrid =    3001     natom =      12
  nloc_mem =       1    nspden =       1   nspinor =       1    nsppol =       1
      nsym =      16    n1xccc =    2501    ntypat =       3    occopt =       1
   xclevel =       2
-    mband =          65        mffmem =           1         mkmem =           1
-   mkqmem =           1        mk1mem =           1           mpw =       15706
      nfft =      421875          nkpt =           1
================================================================================
P This job should need less than                     325.789 Mbytes of memory.
  Rough estimation (10% accuracy) of disk space for files :
_ WF disk file :     15.580 Mbytes ; DEN or POT disk file :      3.221 Mbytes.
================================================================================
 
--------------------------------------------------------------------------------
------------- Echo of variables that govern the present computation ------------
--------------------------------------------------------------------------------
-
- outvars: echo of selected default values                                      
-   iomode0 =  0 , fftalg0 =512 , wfoptalg0 =  0
-
- outvars: echo of global parameters not present in the input file              
-  max_nthreads =    0
-
 -outvars: echo values of preprocessed input variables --------
            acell      1.0000000000E+00  1.0000000000E+00  1.0000000000E+00 Bohr
              amu      8.76200000E+01  1.06420000E+02  1.89984032E+01
             ecut      4.20000000E+01 Hartree
-          fftalg         512
           irdden           1
           irdwfk           1
           istwfk        1
              ixc     -116133
              kpt      0.00000000E+00  0.00000000E+00  5.00000000E-01
           kptopt           0
P           mkmem           1
P          mkqmem           1
P          mk1mem           1
            natom          12
            nband          65
           nbdbuf           4
            ngfft          75      75      75
             nkpt           1
            nstep        2000
             nsym          16
           ntypat           3
              occ      2.000000  2.000000  2.000000  2.000000  2.000000  2.000000
                       2.000000  2.000000  2.000000  2.000000  2.000000  2.000000
                       2.000000  2.000000  2.000000  2.000000  2.000000  2.000000
                       2.000000  2.000000  2.000000  2.000000  2.000000  2.000000
                       2.000000  2.000000  2.000000  2.000000  2.000000  2.000000
                       2.000000  2.000000  2.000000  2.000000  2.000000  2.000000
                       2.000000  2.000000  2.000000  2.000000  2.000000  2.000000
                       2.000000  2.000000  2.000000  2.000000  2.000000  2.000000
                       2.000000  2.000000  2.000000  2.000000  2.000000  2.000000
                       2.000000  2.000000  0.000000  0.000000  0.000000  0.000000
                       0.000000  0.000000  0.000000  0.000000  0.000000
        optdriver           1
            prtwf          -1
            rfdir           1       1       1
           rfelfd           2
            rprim      9.9022832016E+00  0.0000000000E+00 -7.8798044957E+00
                      -2.3026559367E+00  9.6308352827E+00 -7.8798044957E+00
                       0.0000000000E+00  0.0000000000E+00  1.2654901481E+01
          spgroup         140
           symrel      1  0  0   0  1  0   0  0  1      -1  0  0   0 -1  0   0  0 -1
                       0  0  1  -1 -1 -1   1  0  0       0  0 -1   1  1  1  -1  0  0
                       0  1  0   1  0  0  -1 -1 -1       0 -1  0  -1  0  0   1  1  1
                      -1 -1 -1   0  0  1   0  1  0       1  1  1   0  0 -1   0 -1  0
                       0  1  0   1  0  0   0  0  1       0 -1  0  -1  0  0   0  0 -1
                       0  0  1  -1 -1 -1   0  1  0       0  0 -1   1  1  1   0 -1  0
                       1  0  0   0  1  0  -1 -1 -1      -1  0  0   0 -1  0   1  1  1
                      -1 -1 -1   0  0  1   1  0  0       1  1  1   0  0 -1  -1  0  0
            tnons      0.0000000  0.0000000  0.0000000     0.0000000  0.0000000  0.0000000
                       0.5000000  0.5000000  0.0000000     0.5000000  0.5000000  0.0000000
                       0.0000000  0.0000000  0.0000000     0.0000000  0.0000000  0.0000000
                       0.5000000  0.5000000  0.0000000     0.5000000  0.5000000  0.0000000
                       0.5000000  0.5000000  0.0000000     0.5000000  0.5000000  0.0000000
                       0.0000000  0.0000000  0.0000000     0.0000000  0.0000000  0.0000000
                       0.5000000  0.5000000  0.0000000     0.5000000  0.5000000  0.0000000
                       0.0000000  0.0000000  0.0000000     0.0000000  0.0000000  0.0000000
           tolwfr      1.00000000E-20
            typat      1  1  2  2  3  3  3  3  3  3  3  3
           useylm           1
           xangst      1.0053873856E+00  1.2741046328E+00 -2.0849064736E+00
                       3.0161621568E+00  3.8223138985E+00 -6.2547194209E+00
                      -6.0925652046E-01  2.5482092656E+00  1.2634362467E+00
                       2.6200312916E+00  0.0000000000E+00  1.2634362467E+00
                       4.0699748265E+00  4.0861911608E+00 -4.0110602258E+00
                       3.0045698355E+00  2.7360275778E+00 -1.8016931753E+00
                      -4.8425284129E-02  1.0102273705E+00  2.3681197720E+00
                       1.8790709447E-01  3.5584366362E+00 -2.6573680078E+00
                       1.0169797068E+00  2.3603909535E+00  1.5875272150E-01
                       1.2533120854E+00  4.9086002192E+00 -4.8667350582E+00
                       3.8336424479E+00  1.5379818951E+00  1.0144275540E+00
                       2.7682374569E+00  1.8781831213E-01  3.2237946044E+00
            xcart      1.8999068162E+00  2.4077088207E+00 -3.9399022479E+00
                       5.6997204487E+00  7.2231264620E+00 -1.1819706744E+01
                      -1.1513279684E+00  4.8154176413E+00  2.3875484927E+00
                       4.9511416008E+00  0.0000000000E+00  2.3875484927E+00
                       7.6911377898E+00  7.7217822205E+00 -7.5798053292E+00
                       5.6778141363E+00  5.1703428140E+00 -3.4047066768E+00
                      -9.1510524912E-02  1.9090530622E+00  4.4750978189E+00
                       3.5509294698E-01  6.7244707036E+00 -5.0216977689E+00
                       1.9218131286E+00  4.4604924687E+00  2.9999916648E-01
                       2.3684166005E+00  9.2759101100E+00 -9.1967964214E+00
                       7.2445343179E+00  2.9063645791E+00  1.9169902586E+00
                       5.2312106644E+00  3.5492517267E-01  6.0920889111E+00
             xred      2.5000000000E-01  2.5000000000E-01  1.3877787808E-17
                       7.5000000000E-01  7.5000000000E-01  5.5511151231E-17
                      -1.3877787808E-17  5.0000000000E-01  5.0000000000E-01
                       5.0000000000E-01  0.0000000000E+00  5.0000000000E-01
                       9.6314700000E-01  8.0177700000E-01  5.0000000000E-01
                       6.9822300000E-01  5.3685300000E-01  5.0000000000E-01
                       3.6853000000E-02  1.9822300000E-01  5.0000000000E-01
                       1.9822300000E-01  6.9822300000E-01  1.6137000000E-01
                       3.0177700000E-01  4.6314700000E-01  5.0000000000E-01
                       4.6314700000E-01  9.6314700000E-01  1.6137000000E-01
                       8.0177700000E-01  3.0177700000E-01  8.3863000000E-01
                       5.3685300000E-01  3.6853000000E-02  8.3863000000E-01
            znucl       38.00000   46.00000    9.00000
 
================================================================================
 
 chkinp: Checking input parameters for consistency.
 
================================================================================
== DATASET  1 ==================================================================
-   mpi_nproc: 1, omp_nthreads: -1 (-1 if OMP is not activated)
 

--- !DatasetInfo
iteration_state: {dtset: 1, }
dimensions: {natom: 12, nkpt: 1, mband: 65, nsppol: 1, nspinor: 1, nspden: 1, mpw: 15706, }
cutoff_energies: {ecut:  42.0, pawecutdg:  -1.0, }
electrons: {nelect:   1.12000000E+02, charge:   0.00000000E+00, occopt:   1.00000000E+00, tsmear:   1.00000000E-02, }
meta: {optdriver: 1, rfelfd: 2, }
...

 Real(R)+Recip(G) space primitive vectors, cartesian coordinates (Bohr,Bohr^-1):
 R(1)=  9.9022832  0.0000000 -7.8798045  G(1)=  0.1009868  0.0241451  0.0000000
 R(2)= -2.3026559  9.6308353 -7.8798045  G(2)=  0.0000000  0.1038332  0.0000000
 R(3)=  0.0000000  0.0000000 12.6549015  G(3)=  0.0628813  0.0796880  0.0790208
 Unit cell volume ucvol=  1.2068633E+03 bohr^3
 Angles (23,13,12)=  1.28511242E+02  1.28511242E+02  7.57982874E+01 degrees
 
 getcut: wavevector=  0.0000  0.0000  0.0000  ngfft=  75  75  75
         ecut(hartree)=     42.000   => boxcut(ratio)=   2.00440
 
--- Pseudopotential description ------------------------------------------------
- pspini: atom type   1  psp file is /scratch/users/j/a/jabreu/pseudos/PBEsol/Sr.psp8
- pspatm: opening atomic psp file    /scratch/users/j/a/jabreu/pseudos/PBEsol/Sr.psp8
- Sr    ONCVPSP-3.3.0  r_core=   1.66721   1.31335   1.51547
- 38.00000  10.00000    180112                znucl, zion, pspdat
    8 -116133    2    4       600   0.00000   pspcod,pspxc,lmax,lloc,mmax,r2well
    5.99000000000000    6.00000000000000    0.00000000000000   rchrg,fchrg,qchrg
     nproj     2     2     2
     extension_switch     1
  pspatm : epsatm=   12.46450977
         --- l  ekb(1:nproj) -->
             0   10.029206    1.044171
             1    7.472414    1.670829
             2    4.142950    0.968140
 pspatm: atomic psp has been read  and splines computed
 
- pspini: atom type   2  psp file is /scratch/users/j/a/jabreu/pseudos/PBEsol/Pd.psp8
- pspatm: opening atomic psp file    /scratch/users/j/a/jabreu/pseudos/PBEsol/Pd.psp8
- Pd    ONCVPSP-3.3.0  r_core=   1.41052   1.46191   1.55175
- 46.00000  18.00000    180112                znucl, zion, pspdat
    8 -116133    2    4       600   0.00000   pspcod,pspxc,lmax,lloc,mmax,r2well
    5.99000000000000    7.00000000000000    0.00000000000000   rchrg,fchrg,qchrg
     nproj     2     2     2
     extension_switch     1
  pspatm : epsatm=   26.17262427
         --- l  ekb(1:nproj) -->
             0    7.952303   -2.096627
             1    3.304793   -0.572651
             2   -1.185452   -0.410427
 pspatm: atomic psp has been read  and splines computed
 
- pspini: atom type   3  psp file is /scratch/users/j/a/jabreu/pseudos/PBEsol/F.psp8
- pspatm: opening atomic psp file    /scratch/users/j/a/jabreu/pseudos/PBEsol/F.psp8
- F     ONCVPSP-3.3.0  r_core=   1.30942   1.45782   1.60379
-  9.00000   7.00000    180112                znucl, zion, pspdat
    8 -116133    2    4       600   0.00000   pspcod,pspxc,lmax,lloc,mmax,r2well
    5.99000000000000    2.50000000000000    0.00000000000000   rchrg,fchrg,qchrg
     nproj     2     2     1
     extension_switch     1
  pspatm : epsatm=    4.89824824
         --- l  ekb(1:nproj) -->
             0    6.506434    1.065875
             1   -3.978753   -1.295852
             2   -2.394754
 pspatm: atomic psp has been read  and splines computed
 
   1.30435484E+04                                ecore*ucvol(ha*bohr**3)
--------------------------------------------------------------------------------
 
 
 ==>  initialize data related to q vector <== 
 
 The list of irreducible perturbations for this q vector is:
    1)    idir= 1    ipert=  13
    2)    idir= 2    ipert=  13
    3)    idir= 3    ipert=  13
 
================================================================================
 
--------------------------------------------------------------------------------
 Perturbation wavevector (in red.coord.)   0.000000  0.000000  0.000000
 Perturbation : derivative vs k along direction   1
 
 dfpt_looppert : COMMENT -
  In a d/dk calculation, iscf is set to -3 automatically.
 The set of symmetries contains only one element for this perturbation.
 symkpt : not enough symmetry to change the number of k points.
 
--------------------------------------------------------------------------------
 
--------------------------------------------------------------------------------
 
 Initialisation of the first-order wave-functions :
  ireadwf=   0

--- !BeginCycle
iteration_state: {dtset: 1, }
solver: {iscf: 7, nstep: 2000, nline: 4, wfoptalg: 0, }
tolerances: {tolwfr: 1.00E-20, }
...
 
     iter   2DEtotal(Ha)        deltaE(Ha) residm    vres2
-ETOT  1  -49.322028537970     -4.932E+01 5.713E-02 0.000E+00
 ETOT  2  -49.384942934268     -6.291E-02 4.509E-03 0.000E+00
 ETOT  3  -49.385484768342     -5.418E-04 4.688E-04 0.000E+00
 ETOT  4  -49.385494966992     -1.020E-05 6.544E-05 0.000E+00
 ETOT  5  -49.385495221978     -2.550E-07 9.453E-06 0.000E+00
 ETOT  6  -49.385495229096     -7.117E-09 1.562E-06 0.000E+00
 ETOT  7  -49.385495229306     -2.099E-10 2.439E-07 0.000E+00
 ETOT  8  -49.385495229312     -6.402E-12 4.240E-08 0.000E+00
 ETOT  9  -49.385495229312     -2.203E-13 6.650E-09 0.000E+00
 ETOT 10  -49.385495229312      5.684E-14 1.194E-09 0.000E+00
 ETOT 11  -49.385495229312     -7.105E-15 1.857E-10 0.000E+00
 ETOT 12  -49.385495229312     -2.132E-14 3.433E-11 0.000E+00
 ETOT 13  -49.385495229312     -1.421E-14 5.283E-12 0.000E+00
 ETOT 14  -49.385495229312      2.132E-14 1.010E-12 0.000E+00
 ETOT 15  -49.385495229312     -7.105E-15 1.524E-13 0.000E+00
 ETOT 16  -49.385495229312      7.105E-15 3.036E-14 0.000E+00
 ETOT 17  -49.385495229312      7.105E-15 4.522E-15 0.000E+00
 ETOT 18  -49.385495229312     -1.421E-14 9.351E-16 0.000E+00
 ETOT 19  -49.385495229312      0.000E+00 1.376E-16 0.000E+00
 ETOT 20  -49.385495229312      7.105E-15 2.894E-17 0.000E+00
 ETOT 21  -49.385495229312      0.000E+00 4.264E-18 0.000E+00
 ETOT 22  -49.385495229312     -7.105E-15 8.982E-19 0.000E+00
 ETOT 23  -49.385495229312     -7.105E-15 1.322E-19 0.000E+00
 ETOT 24  -49.385495229312      2.132E-14 2.789E-20 0.000E+00
 ETOT 25  -49.385495229312     -7.105E-15 9.934E-21 0.000E+00
 
 At SCF step   25   max residual=  9.93E-21 < tolwfr=  1.00E-20 =>converged.
================================================================================
 
 ----iterations are completed or convergence reached----
 
 dfpt_looppert: DFPT cycle converged with prtwf=-1. Will skip output of the 1st-order WFK file.
 dfpt_looppert : ek2=    9.5341031173E+01
          f-sum rule ratio=    9.9872317075E-01
 prteigrs : about to open file /scratch/users/j/a/jabreu/flow_simple_11atoms/flow/w239/t1/tmpdata/tmp_1WF1_EIG
 Expectation of eigenvalue derivatives (hartree) for nkpt=   1  k points:
  (in case of degenerate eigenvalues, averaged derivative)
 kpt#   1, nband= 65, wtk=  1.00000, kpt=  0.0000  0.0000  0.5000 (reduced coord)
  -0.00000   -0.00000   -0.00000   -0.00000   -0.00000   -0.00000    0.00000   -0.00000
  -0.00000   -0.00000    0.00000    0.00000    0.00000   -0.00000    0.00000   -0.00000
   0.00000    0.00000    0.00000   -0.00000   -0.00000   -0.00000   -0.00000    0.00000
  -0.00000   -0.00000   -0.00000   -0.00000   -0.00000    0.00000    0.00000   -0.00000
   0.00000   -0.00000   -0.00000    0.00000   -0.00000   -0.00000   -0.00000   -0.00000
  -0.00000    0.00000   -0.00000   -0.00000    0.00000   -0.00000    0.00000   -0.00000
  -0.00000    0.00000   -0.00000   -0.00000    0.00000   -0.00000    0.00000   -0.00000
  -0.00000    0.00000   -0.00000    0.00000   -0.00000   -0.00000   -0.00000   -0.00000
  -0.00006
 
 Eight components of 2nd-order total energy (hartree) are
 1,2,3: 0th-order hamiltonian combined with 1st-order wavefunctions
     kin0=   7.62807384E+01 eigvalue=   1.90398745E+00  local=  -3.64614865E+01
 4,5,6: 1st-order hamiltonian combined with 1st and 0th-order wfs
     kin1=  -9.52192970E+01  Hartree=   0.00000000E+00     xc=   0.00000000E+00
 7,8,9: eventually, occupation + non-local contributions
    edocc=   5.60655974E+00     enl0=   2.05569618E+00   enl1=  -3.55169350E+00
 1-9 gives the relaxation energy (to be shifted if some occ is /=2.0)
   erelax=  -4.93854952E+01
  No Ewald or frozen-wf contrib.: the relaxation energy is the total one
 2DEtotal=   -0.4938549523E+02 Ha. Also 2DEtotal=   -0.134384766780E+04 eV
    (  non-var. 2DEtotal :   -4.9385495229E+01 Ha)
 
--------------------------------------------------------------------------------
 Perturbation wavevector (in red.coord.)   0.000000  0.000000  0.000000
 Perturbation : derivative vs k along direction   2
 The set of symmetries contains only one element for this perturbation.
 symkpt : not enough symmetry to change the number of k points.
 
--------------------------------------------------------------------------------
 
--------------------------------------------------------------------------------
 
 Initialisation of the first-order wave-functions :
  ireadwf=   0

--- !BeginCycle
iteration_state: {dtset: 1, }
solver: {iscf: 7, nstep: 2000, nline: 4, wfoptalg: 0, }
tolerances: {tolwfr: 1.00E-20, }
...
 
     iter   2DEtotal(Ha)        deltaE(Ha) residm    vres2
-ETOT  1  -49.321998275597     -4.932E+01 5.713E-02 0.000E+00
 ETOT  2  -49.384917850647     -6.292E-02 4.511E-03 0.000E+00
 ETOT  3  -49.385459864769     -5.420E-04 4.691E-04 0.000E+00
 ETOT  4  -49.385470068385     -1.020E-05 6.549E-05 0.000E+00
 ETOT  5  -49.385470323535     -2.552E-07 9.461E-06 0.000E+00
 ETOT  6  -49.385470330657     -7.122E-09 1.564E-06 0.000E+00
 ETOT  7  -49.385470330867     -2.100E-10 2.441E-07 0.000E+00
 ETOT  8  -49.385470330874     -6.395E-12 4.244E-08 0.000E+00
 ETOT  9  -49.385470330874     -1.918E-13 6.657E-09 0.000E+00
 ETOT 10  -49.385470330874      2.132E-14 1.195E-09 0.000E+00
 ETOT 11  -49.385470330874     -4.263E-14 1.859E-10 0.000E+00
 ETOT 12  -49.385470330874     -4.974E-14 3.436E-11 0.000E+00
 ETOT 13  -49.385470330874      3.553E-14 5.289E-12 0.000E+00
 ETOT 14  -49.385470330874      2.132E-14 1.011E-12 0.000E+00
 ETOT 15  -49.385470330874     -1.421E-14 1.526E-13 0.000E+00
 ETOT 16  -49.385470330874      1.421E-14 3.039E-14 0.000E+00
 ETOT 17  -49.385470330874     -7.105E-15 4.528E-15 0.000E+00
 ETOT 18  -49.385470330874      0.000E+00 9.364E-16 0.000E+00
 ETOT 19  -49.385470330874     -7.105E-15 1.378E-16 0.000E+00
 ETOT 20  -49.385470330874      1.421E-14 2.898E-17 0.000E+00
 ETOT 21  -49.385470330874      0.000E+00 4.271E-18 0.000E+00
 ETOT 22  -49.385470330874      0.000E+00 8.994E-19 0.000E+00
 ETOT 23  -49.385470330874      0.000E+00 1.324E-19 0.000E+00
 ETOT 24  -49.385470330874     -7.105E-15 2.793E-20 0.000E+00
 ETOT 25  -49.385470330874      7.105E-15 9.934E-21 0.000E+00
 
 At SCF step   25   max residual=  9.93E-21 < tolwfr=  1.00E-20 =>converged.
================================================================================
 
 ----iterations are completed or convergence reached----
 
 dfpt_looppert: DFPT cycle converged with prtwf=-1. Will skip output of the 1st-order WFK file.
 dfpt_looppert : ek2=    9.5341031173E+01
          f-sum rule ratio=    9.9872262757E-01
 prteigrs : about to open file /scratch/users/j/a/jabreu/flow_simple_11atoms/flow/w239/t1/tmpdata/tmp_1WF1_EIG
 Expectation of eigenvalue derivatives (hartree) for nkpt=   1  k points:
  (in case of degenerate eigenvalues, averaged derivative)
 kpt#   1, nband= 65, wtk=  1.00000, kpt=  0.0000  0.0000  0.5000 (reduced coord)
  -0.00000   -0.00000   -0.00000    0.00000   -0.00000   -0.00000    0.00000    0.00000
  -0.00000   -0.00000   -0.00000   -0.00000    0.00000   -0.00000   -0.00000   -0.00000
  -0.00000   -0.00000    0.00000   -0.00000   -0.00000   -0.00000    0.00000   -0.00000
  -0.00000   -0.00000    0.00000   -0.00000    0.00000    0.00000   -0.00000    0.00000
   0.00000    0.00000   -0.00000    0.00000   -0.00000   -0.00000   -0.00000   -0.00000
  -0.00000    0.00000   -0.00000    0.00000   -0.00000   -0.00000    0.00000   -0.00000
   0.00000   -0.00000   -0.00000   -0.00000   -0.00000   -0.00000   -0.00000    0.00000
  -0.00000    0.00000   -0.00000    0.00000    0.00000    0.00000   -0.00000    0.00000
  -0.00006
 
 Eight components of 2nd-order total energy (hartree) are
 1,2,3: 0th-order hamiltonian combined with 1st-order wavefunctions
     kin0=   7.62832539E+01 eigvalue=   1.90439277E+00  local=  -3.64633464E+01
 4,5,6: 1st-order hamiltonian combined with 1st and 0th-order wfs
     kin1=  -9.52192452E+01  Hartree=   0.00000000E+00     xc=   0.00000000E+00
 7,8,9: eventually, occupation + non-local contributions
    edocc=   5.60549260E+00     enl0=   2.05567750E+00   enl1=  -3.55169549E+00
 1-9 gives the relaxation energy (to be shifted if some occ is /=2.0)
   erelax=  -4.93854703E+01
  No Ewald or frozen-wf contrib.: the relaxation energy is the total one
 2DEtotal=   -0.4938547033E+02 Ha. Also 2DEtotal=   -0.134384699028E+04 eV
    (  non-var. 2DEtotal :   -4.9385470330E+01 Ha)
 
--------------------------------------------------------------------------------
 Perturbation wavevector (in red.coord.)   0.000000  0.000000  0.000000
 Perturbation : derivative vs k along direction   3
 The set of symmetries contains only one element for this perturbation.
 symkpt : not enough symmetry to change the number of k points.
 
--------------------------------------------------------------------------------
 
--------------------------------------------------------------------------------
 
 Initialisation of the first-order wave-functions :
  ireadwf=   0

--- !BeginCycle
iteration_state: {dtset: 1, }
solver: {iscf: 7, nstep: 2000, nline: 4, wfoptalg: 0, }
tolerances: {tolwfr: 1.00E-20, }
...
 
     iter   2DEtotal(Ha)        deltaE(Ha) residm    vres2
-ETOT  1  -75.292979798932     -7.529E+01 4.353E-02 0.000E+00
 ETOT  2  -75.386431490742     -9.345E-02 1.760E-03 0.000E+00
 ETOT  3  -75.386906314269     -4.748E-04 2.103E-05 0.000E+00
 ETOT  4  -75.386910989250     -4.675E-06 1.859E-06 0.000E+00
 ETOT  5  -75.386911051841     -6.259E-08 3.779E-08 0.000E+00
 ETOT  6  -75.386911052881     -1.040E-09 3.550E-09 0.000E+00
 ETOT  7  -75.386911052901     -2.012E-11 9.074E-11 0.000E+00
 ETOT  8  -75.386911052901     -3.126E-13 8.307E-12 0.000E+00
 ETOT  9  -75.386911052901     -8.527E-14 2.309E-13 0.000E+00
 ETOT 10  -75.386911052901      1.421E-14 2.163E-14 0.000E+00
 ETOT 11  -75.386911052901     -4.263E-14 8.837E-16 0.000E+00
 ETOT 12  -75.386911052901     -4.263E-14 1.613E-16 0.000E+00
 ETOT 13  -75.386911052901     -1.421E-14 2.290E-17 0.000E+00
 ETOT 14  -75.386911052901      0.000E+00 4.098E-18 0.000E+00
 ETOT 15  -75.386911052901      2.842E-14 7.856E-19 0.000E+00
 ETOT 16  -75.386911052901     -2.842E-14 1.397E-19 0.000E+00
 ETOT 17  -75.386911052901      0.000E+00 2.716E-20 0.000E+00
 ETOT 18  -75.386911052901      0.000E+00 9.469E-21 0.000E+00
 
 At SCF step   18   max residual=  9.47E-21 < tolwfr=  1.00E-20 =>converged.
================================================================================
 
 ----iterations are completed or convergence reached----
 
 dfpt_looppert: DFPT cycle converged with prtwf=-1. Will skip output of the 1st-order WFK file.
 dfpt_looppert : ek2=    1.4634125989E+02
          f-sum rule ratio=    9.9136908645E-01
 prteigrs : about to open file /scratch/users/j/a/jabreu/flow_simple_11atoms/flow/w239/t1/tmpdata/tmp_1WF1_EIG
 Expectation of eigenvalue derivatives (hartree) for nkpt=   1  k points:
  (in case of degenerate eigenvalues, averaged derivative)
 kpt#   1, nband= 65, wtk=  1.00000, kpt=  0.0000  0.0000  0.5000 (reduced coord)
  -0.00000   -0.00000   -0.00000    0.00000    0.00000   -0.00000    0.00000    0.00000
  -0.00000    0.00000    0.00000   -0.00000    0.00000   -0.00000   -0.00000   -0.00000
   0.00000    0.00000   -0.00000   -0.00000   -0.00000   -0.00000    0.00000    0.00000
  -0.00000   -0.00000    0.00000    0.00000    0.00000    0.00000    0.00000    0.00000
   0.00000   -0.00000   -0.00000    0.00000   -0.00000   -0.00000   -0.00000   -0.00000
  -0.00000   -0.00000   -0.00000    0.00000   -0.00000   -0.00000    0.00000   -0.00000
  -0.00000    0.00000   -0.00000    0.00000    0.00000   -0.00000    0.00000    0.00000
  -0.00000    0.00000   -0.00000    0.00000   -0.00000   -0.00000   -0.00000   -0.00000
  -0.00014
 
 Eight components of 2nd-order total energy (hartree) are
 1,2,3: 0th-order hamiltonian combined with 1st-order wavefunctions
     kin0=   1.19289543E+02 eigvalue=   3.24298519E+00  local=  -5.77094755E+01
 4,5,6: 1st-order hamiltonian combined with 1st and 0th-order wfs
     kin1=  -1.45078201E+02  Hartree=   0.00000000E+00     xc=   0.00000000E+00
 7,8,9: eventually, occupation + non-local contributions
    edocc=   7.04483561E+00     enl0=   3.51902285E+00   enl1=  -5.69562098E+00
 1-9 gives the relaxation energy (to be shifted if some occ is /=2.0)
   erelax=  -7.53869111E+01
  No Ewald or frozen-wf contrib.: the relaxation energy is the total one
 2DEtotal=   -0.7538691105E+02 Ha. Also 2DEtotal=   -0.205138217468E+04 eV
    (  non-var. 2DEtotal :   -7.5386911052E+01 Ha)
 
 CALCULATION OF EFFECTIVE MASSES
 NOTE : Additional infos (eff. mass eigenvalues, eigenvectors and, if degenerate, average mass) are available in stdout.

 K-point ( 0.000, 0.000, 0.500) | band =    56
 Effective mass tensor:
             -3.8891008153             -0.1095420723             -0.0098616162
             -0.1095420723             -3.9415216657             -0.0124578235
             -0.0098616162             -0.0124578235             -4.0199002302
 Effective mass tensor eigenvalues:
             -4.0403127274             -4.0075328976             -3.8026770863
 Angular average effective mass 1/(<1/m>)=  -3.9473252916
 Angular average effective mass for Frohlich model (<m**0.5>)**2=  -3.9481876421
 Effective masses along directions: (cart. coord. / red. coord. -> eff. mass)
    1:   1.000000  0.000000  0.000000 /   0.974012 -0.226495  0.000000 ->  -3.8860339176
    2:   0.000000  1.000000  0.000000 /   0.000000  1.000000  0.000000 ->  -3.9383993519
    3:   0.000000  0.000000  1.000000 /  -0.467310 -0.467310  0.750495 ->  -4.0198375558
    4:   0.577350  0.577350  0.577350 /   0.157669 -0.043004  0.986555 ->  -4.0379470995
    5:   0.000000  0.707107  0.707107 /  -0.524966  0.116657  0.843091 ->  -3.9909178277
    6:   0.707107  0.000000  0.707107 /   0.123561 -0.622086  0.773137 ->  -3.9613390142
    7:   0.707107  0.707107  0.000000 /   0.803823  0.594869  0.000000 ->  -4.0246109388

 K-point ( 0.000, 0.000, 0.500) | band =    57
 Effective mass tensor:
              2.2727773469              0.3174437138              0.8034917376
              0.3174437138              2.4245769539              1.0182425433
              0.8034917376              1.0182425433              2.0185625014
 Effective mass tensor eigenvalues:
              1.0088443074              2.0222858338              3.6847866611
 Angular average effective mass 1/(<1/m>)=   1.7073496789
 Angular average effective mass for Frohlich model (<m**0.5>)**2=   1.8530923580
 Effective masses along directions: (cart. coord. / red. coord. -> eff. mass)
    1:   1.000000  0.000000  0.000000 /   0.974012 -0.226495  0.000000 ->   1.9489058639
    2:   0.000000  1.000000  0.000000 /   0.000000  1.000000  0.000000 ->   1.9069817401
    3:   0.000000  0.000000  1.000000 /  -0.467310 -0.467310  0.750495 ->   1.3896377206
    4:   0.577350  0.577350  0.577350 /   0.157669 -0.043004  0.986555 ->   3.6399878189
    5:   0.000000  0.707107  0.707107 /  -0.524966  0.116657  0.843091 ->   2.8728497650
    6:   0.707107  0.000000  0.707107 /   0.123561 -0.622086  0.773137 ->   2.4986571807
    7:   0.707107  0.707107  0.000000 /   0.803823  0.594869  0.000000 ->   1.8438531102

 END OF EFFECTIVE MASSES SECTION

================================================================================
 
 ---- first-order wavefunction calculations are completed ----
 
 
 Total localisation tensor (bohr^2) in cartesian coordinates
  WARNING : still subject to testing - especially symmetries.
      direction              matrix element
   alpha     beta       real part   imaginary part
     1        1       0.5476650965    0.0000000000
     1        2      -0.1175075016    0.0000000000
     1        3      -0.3173082364    0.0000000000
     2        1      -0.1175075016    0.0000000000
     2        2       0.4914739430    0.0000000000
     2        3      -0.4021165841    0.0000000000
     3        1      -0.3173082364    0.0000000000
     3        2      -0.4021165841    0.0000000000
     3        3       1.9139073785    0.0000000000
 
 respfn : d/dk was computed, but no 2DTE, so no DDB output.
 
== END DATASET(S) ==============================================================
================================================================================
  
 -outvars: echo values of variables after computation  --------
            acell      1.0000000000E+00  1.0000000000E+00  1.0000000000E+00 Bohr
              amu      8.76200000E+01  1.06420000E+02  1.89984032E+01
             ecut      4.20000000E+01 Hartree
           etotal     -7.5386911053E+01
            fcart      0.0000000000E+00  0.0000000000E+00  0.0000000000E+00
                       0.0000000000E+00  0.0000000000E+00  0.0000000000E+00
                       0.0000000000E+00  0.0000000000E+00  0.0000000000E+00
                       0.0000000000E+00  0.0000000000E+00  0.0000000000E+00
                       0.0000000000E+00  0.0000000000E+00  0.0000000000E+00
                       0.0000000000E+00  0.0000000000E+00  0.0000000000E+00
                       0.0000000000E+00  0.0000000000E+00  0.0000000000E+00
                       0.0000000000E+00  0.0000000000E+00  0.0000000000E+00
                       0.0000000000E+00  0.0000000000E+00  0.0000000000E+00
                       0.0000000000E+00  0.0000000000E+00  0.0000000000E+00
                       0.0000000000E+00  0.0000000000E+00  0.0000000000E+00
                       0.0000000000E+00  0.0000000000E+00  0.0000000000E+00
-          fftalg         512
           irdden           1
           irdwfk           1
           istwfk        1
              ixc     -116133
              kpt      0.00000000E+00  0.00000000E+00  5.00000000E-01
           kptopt           0
P           mkmem           1
P          mkqmem           1
P          mk1mem           1
            natom          12
            nband          65
           nbdbuf           4
            ngfft          75      75      75
             nkpt           1
            nstep        2000
             nsym          16
           ntypat           3
              occ      2.000000  2.000000  2.000000  2.000000  2.000000  2.000000
                       2.000000  2.000000  2.000000  2.000000  2.000000  2.000000
                       2.000000  2.000000  2.000000  2.000000  2.000000  2.000000
                       2.000000  2.000000  2.000000  2.000000  2.000000  2.000000
                       2.000000  2.000000  2.000000  2.000000  2.000000  2.000000
                       2.000000  2.000000  2.000000  2.000000  2.000000  2.000000
                       2.000000  2.000000  2.000000  2.000000  2.000000  2.000000
                       2.000000  2.000000  2.000000  2.000000  2.000000  2.000000
                       2.000000  2.000000  2.000000  2.000000  2.000000  2.000000
                       2.000000  2.000000  0.000000  0.000000  0.000000  0.000000
                       0.000000  0.000000  0.000000  0.000000  0.000000
        optdriver           1
            prtwf          -1
            rfdir           1       1       1
           rfelfd           2
            rprim      9.9022832016E+00  0.0000000000E+00 -7.8798044957E+00
                      -2.3026559367E+00  9.6308352827E+00 -7.8798044957E+00
                       0.0000000000E+00  0.0000000000E+00  1.2654901481E+01
          spgroup         140
           strten      0.0000000000E+00  0.0000000000E+00  0.0000000000E+00
                       0.0000000000E+00  0.0000000000E+00  0.0000000000E+00
           symrel      1  0  0   0  1  0   0  0  1      -1  0  0   0 -1  0   0  0 -1
                       0  0  1  -1 -1 -1   1  0  0       0  0 -1   1  1  1  -1  0  0
                       0  1  0   1  0  0  -1 -1 -1       0 -1  0  -1  0  0   1  1  1
                      -1 -1 -1   0  0  1   0  1  0       1  1  1   0  0 -1   0 -1  0
                       0  1  0   1  0  0   0  0  1       0 -1  0  -1  0  0   0  0 -1
                       0  0  1  -1 -1 -1   0  1  0       0  0 -1   1  1  1   0 -1  0
                       1  0  0   0  1  0  -1 -1 -1      -1  0  0   0 -1  0   1  1  1
                      -1 -1 -1   0  0  1   1  0  0       1  1  1   0  0 -1  -1  0  0
            tnons      0.0000000  0.0000000  0.0000000     0.0000000  0.0000000  0.0000000
                       0.5000000  0.5000000  0.0000000     0.5000000  0.5000000  0.0000000
                       0.0000000  0.0000000  0.0000000     0.0000000  0.0000000  0.0000000
                       0.5000000  0.5000000  0.0000000     0.5000000  0.5000000  0.0000000
                       0.5000000  0.5000000  0.0000000     0.5000000  0.5000000  0.0000000
                       0.0000000  0.0000000  0.0000000     0.0000000  0.0000000  0.0000000
                       0.5000000  0.5000000  0.0000000     0.5000000  0.5000000  0.0000000
                       0.0000000  0.0000000  0.0000000     0.0000000  0.0000000  0.0000000
           tolwfr      1.00000000E-20
            typat      1  1  2  2  3  3  3  3  3  3  3  3
           useylm           1
           xangst      1.0053873856E+00  1.2741046328E+00 -2.0849064736E+00
                       3.0161621568E+00  3.8223138985E+00 -6.2547194209E+00
                      -6.0925652046E-01  2.5482092656E+00  1.2634362467E+00
                       2.6200312916E+00  0.0000000000E+00  1.2634362467E+00
                       4.0699748265E+00  4.0861911608E+00 -4.0110602258E+00
                       3.0045698355E+00  2.7360275778E+00 -1.8016931753E+00
                      -4.8425284129E-02  1.0102273705E+00  2.3681197720E+00
                       1.8790709447E-01  3.5584366362E+00 -2.6573680078E+00
                       1.0169797068E+00  2.3603909535E+00  1.5875272150E-01
                       1.2533120854E+00  4.9086002192E+00 -4.8667350582E+00
                       3.8336424479E+00  1.5379818951E+00  1.0144275540E+00
                       2.7682374569E+00  1.8781831213E-01  3.2237946044E+00
            xcart      1.8999068162E+00  2.4077088207E+00 -3.9399022479E+00
                       5.6997204487E+00  7.2231264620E+00 -1.1819706744E+01
                      -1.1513279684E+00  4.8154176413E+00  2.3875484927E+00
                       4.9511416008E+00  0.0000000000E+00  2.3875484927E+00
                       7.6911377898E+00  7.7217822205E+00 -7.5798053292E+00
                       5.6778141363E+00  5.1703428140E+00 -3.4047066768E+00
                      -9.1510524912E-02  1.9090530622E+00  4.4750978189E+00
                       3.5509294698E-01  6.7244707036E+00 -5.0216977689E+00
                       1.9218131286E+00  4.4604924687E+00  2.9999916648E-01
                       2.3684166005E+00  9.2759101100E+00 -9.1967964214E+00
                       7.2445343179E+00  2.9063645791E+00  1.9169902586E+00
                       5.2312106644E+00  3.5492517267E-01  6.0920889111E+00
             xred      2.5000000000E-01  2.5000000000E-01  1.3877787808E-17
                       7.5000000000E-01  7.5000000000E-01  5.5511151231E-17
                      -1.3877787808E-17  5.0000000000E-01  5.0000000000E-01
                       5.0000000000E-01  0.0000000000E+00  5.0000000000E-01
                       9.6314700000E-01  8.0177700000E-01  5.0000000000E-01
                       6.9822300000E-01  5.3685300000E-01  5.0000000000E-01
                       3.6853000000E-02  1.9822300000E-01  5.0000000000E-01
                       1.9822300000E-01  6.9822300000E-01  1.6137000000E-01
                       3.0177700000E-01  4.6314700000E-01  5.0000000000E-01
                       4.6314700000E-01  9.6314700000E-01  1.6137000000E-01
                       8.0177700000E-01  3.0177700000E-01  8.3863000000E-01
                       5.3685300000E-01  3.6853000000E-02  8.3863000000E-01
            znucl       38.00000   46.00000    9.00000
 
================================================================================


- Timing analysis has been suppressed with timopt=0



================================================================================

 Suggested references for the acknowledgment of ABINIT usage.

 The users of ABINIT have little formal obligations with respect to the ABINIT group
 (those specified in the GNU General Public License, http://www.gnu.org/copyleft/gpl.txt).
 However, it is common practice in the scientific literature,
 to acknowledge the efforts of people that have made the research possible.
 In this spirit, please find below suggested citations of work written by ABINIT developers,
 corresponding to implementations inside of ABINIT that you have used in the present run.
 Note also that it will be of great value to readers of publications presenting these results,
 to read papers enabling them to understand the theoretical formalism and details
 of the ABINIT implementation.
 For information on why they are suggested, see also https://docs.abinit.org/theory/acknowledgments.
-
- [1] Precise effective masses from density functional perturbation theory
- J. Laflamme Janssen, Y. Gillet, S. Ponce, A. Martin, M. Torrent, and X. Gonze. Phys. Rev. B 93, 205147 (2016)
- Comment: in case the DFPT prediction of effective masses is used.
- Strong suggestion to cite this paper in your publications.
- DOI and bibtex: see https://docs.abinit.org/theory/bibliography/#laflamme2016
-
- [2] Libxc: A library of exchange and correlation functionals for density functional theory.
- M.A.L. Marques, M.J.T. Oliveira, T. Burnus, Computer Physics Communications 183, 2227 (2012).
- Comment: to be cited when LibXC is used (negative value of ixc)
- Strong suggestion to cite this paper.
- DOI and bibtex: see https://docs.abinit.org/theory/bibliography/#marques2012
-
- [3] The Abinit project: Impact, environment and recent developments.
- Computer Phys. Comm. 248, 107042 (2020).
- X.Gonze, B. Amadon, G. Antonius, F.Arnardi, L.Baguet, J.-M.Beuken,
- J.Bieder, F.Bottin, J.Bouchet, E.Bousquet, N.Brouwer, F.Bruneval,
- G.Brunin, T.Cavignac, J.-B. Charraud, Wei Chen, M.Cote, S.Cottenier,
- J.Denier, G.Geneste, Ph.Ghosez, M.Giantomassi, Y.Gillet, O.Gingras,
- D.R.Hamann, G.Hautier, Xu He, N.Helbig, N.Holzwarth, Y.Jia, F.Jollet,
- W.Lafargue-Dit-Hauret, K.Lejaeghere, M.A.L.Marques, A.Martin, C.Martins,
- H.P.C. Miranda, F.Naccarato, K. Persson, G.Petretto, V.Planes, Y.Pouillon,
- S.Prokhorenko, F.Ricci, G.-M.Rignanese, A.H.Romero, M.M.Schmitt, M.Torrent,
- M.J.van Setten, B.Van Troeye, M.J.Verstraete, G.Zerah and J.W.Zwanzig
- Comment: the fifth generic paper describing the ABINIT project.
- Note that a version of this paper, that is not formatted for Computer Phys. Comm. 
- is available at https://www.abinit.org/sites/default/files/ABINIT20.pdf .
- The licence allows the authors to put it on the Web.
- DOI and bibtex: see https://docs.abinit.org/theory/bibliography/#gonze2020
-
- [4] First-principles responses of solids to atomic displacements and homogeneous electric fields:,
- implementation of a conjugate-gradient algorithm. X. Gonze, Phys. Rev. B55, 10337 (1997).
- Comment: Non-vanishing rfphon and/or rfelfd, in the norm-conserving case.
- DOI and bibtex: see https://docs.abinit.org/theory/bibliography/#gonze1997
-
- [5] Dynamical matrices, Born effective charges, dielectric permittivity tensors, and ,
- interatomic force constants from density-functional perturbation theory,
- X. Gonze and C. Lee, Phys. Rev. B55, 10355 (1997).
- Comment: Non-vanishing rfphon and/or rfelfd, in the norm-conserving case.
- DOI and bibtex: see https://docs.abinit.org/theory/bibliography/#gonze1997a
-
- [6] Optimized norm-conserving Vanderbilt pseudopotentials.
- D.R. Hamann, Phys. Rev. B 88, 085117 (2013).
- Comment: Some pseudopotential generated using the ONCVPSP code were used.
- DOI and bibtex: see https://docs.abinit.org/theory/bibliography/#hamann2013
-
- [7] ABINIT: Overview, and focus on selected capabilities
- J. Chem. Phys. 152, 124102 (2020).
- A. Romero, D.C. Allan, B. Amadon, G. Antonius, T. Applencourt, L.Baguet,
- J.Bieder, F.Bottin, J.Bouchet, E.Bousquet, F.Bruneval,
- G.Brunin, D.Caliste, M.Cote,
- J.Denier, C. Dreyer, Ph.Ghosez, M.Giantomassi, Y.Gillet, O.Gingras,
- D.R.Hamann, G.Hautier, F.Jollet, G. Jomard,
- A.Martin, 
- H.P.C. Miranda, F.Naccarato, G.Petretto, N.A. Pike, V.Planes,
- S.Prokhorenko, T. Rangel, F.Ricci, G.-M.Rignanese, M.Royo, M.Stengel, M.Torrent,
- M.J.van Setten, B.Van Troeye, M.J.Verstraete, J.Wiktor, J.W.Zwanziger, and X.Gonze.
- Comment: a global overview of ABINIT, with focus on selected capabilities .
- Note that a version of this paper, that is not formatted for J. Chem. Phys 
- is available at https://www.abinit.org/sites/default/files/ABINIT20_JPC.pdf .
- The licence allows the authors to put it on the Web.
- DOI and bibtex: see https://docs.abinit.org/theory/bibliography/#romero2020
-
- [8] Recent developments in the ABINIT software package.
- Computer Phys. Comm. 205, 106 (2016).
- X.Gonze, F.Jollet, F.Abreu Araujo, D.Adams, B.Amadon, T.Applencourt,
- C.Audouze, J.-M.Beuken, J.Bieder, A.Bokhanchuk, E.Bousquet, F.Bruneval
- D.Caliste, M.Cote, F.Dahm, F.Da Pieve, M.Delaveau, M.Di Gennaro,
- B.Dorado, C.Espejo, G.Geneste, L.Genovese, A.Gerossier, M.Giantomassi,
- Y.Gillet, D.R.Hamann, L.He, G.Jomard, J.Laflamme Janssen, S.Le Roux,
- A.Levitt, A.Lherbier, F.Liu, I.Lukacevic, A.Martin, C.Martins,
- M.J.T.Oliveira, S.Ponce, Y.Pouillon, T.Rangel, G.-M.Rignanese,
- A.H.Romero, B.Rousseau, O.Rubel, A.A.Shukri, M.Stankovski, M.Torrent,
- M.J.Van Setten, B.Van Troeye, M.J.Verstraete, D.Waroquier, J.Wiktor,
- B.Xu, A.Zhou, J.W.Zwanziger.
- Comment: the fourth generic paper describing the ABINIT project.
- Note that a version of this paper, that is not formatted for Computer Phys. Comm. 
- is available at https://www.abinit.org/sites/default/files/ABINIT16.pdf .
- The licence allows the authors to put it on the Web.
- DOI and bibtex: see https://docs.abinit.org/theory/bibliography/#gonze2016
-
- Proc.   0 individual time (sec): cpu=        328.2  wall=        334.3
 
================================================================================
 
 Calculation completed.
.Delivered   2 WARNINGs and   5 COMMENTs to log file.
+Overall time at end (sec) : cpu=        328.2  wall=        334.3
