
.Version 9.7.2 of ABINIT 
.(MPI version, prepared for a x86_64_linux_intel19.1 computer) 

.Copyright (C) 1998-2021 ABINIT group . 
 ABINIT comes with ABSOLUTELY NO WARRANTY.
 It is free software, and you are welcome to redistribute it
 under certain conditions (GNU General Public License,
 see ~abinit/COPYING or http://www.gnu.org/copyleft/gpl.txt).

 ABINIT is a project of the Universite Catholique de Louvain,
 Corning Inc. and other collaborators, see ~abinit/doc/developers/contributors.txt .
 Please read https://docs.abinit.org/theory/acknowledgments for suggested
 acknowledgments of the ABINIT effort.
 For more information, see https://www.abinit.org .

.Starting date : Wed  1 Dec 2021.
- ( at 22h09 )
  
- input  file    -> /scratch/users/j/a/jabreu/flow_simple_remain_atoms/flow/w285/t1/run.abi
- output file    -> /scratch/users/j/a/jabreu/flow_simple_remain_atoms/flow/w285/t1/run.abo
- root for input  files -> /scratch/users/j/a/jabreu/flow_simple_remain_atoms/flow/w285/t1/indata/in
- root for output files -> /scratch/users/j/a/jabreu/flow_simple_remain_atoms/flow/w285/t1/outdata/out
 
 
 Symmetries : space group P-3 m 1 (#164); Bravais hP (primitive hexag.)
================================================================================
 Values of the parameters that define the memory need of the present run (RF).
     intxc =       0      iscf =       7    lmnmax =      32     lnmax =       8
     mgfft =      80  mpssoang =       4    mqgrid =    3702     natom =       5
  nloc_mem =       1    nspden =       1   nspinor =       1    nsppol =       1
      nsym =      12    n1xccc =    2501    ntypat =       2    occopt =       1
   xclevel =       2
-    mband =          29        mffmem =           1         mkmem =           2
-   mkqmem =           2        mk1mem =           2           mpw =        9648
      nfft =      184320          nkpt =           2
================================================================================
P This job should need less than                     165.961 Mbytes of memory.
  Rough estimation (10% accuracy) of disk space for files :
_ WF disk file :      8.541 Mbytes ; DEN or POT disk file :      1.408 Mbytes.
================================================================================
 
--------------------------------------------------------------------------------
------------- Echo of variables that govern the present computation ------------
--------------------------------------------------------------------------------
-
- outvars: echo of selected default values                                      
-   iomode0 =  0 , fftalg0 =512 , wfoptalg0 =  0
-
- outvars: echo of global parameters not present in the input file              
-  max_nthreads =    0
-
 -outvars: echo values of preprocessed input variables --------
            acell      1.0000000000E+00  1.0000000000E+00  1.0000000000E+00 Bohr
              amu      1.38905500E+02  1.59994000E+01
             ecut      5.20000000E+01 Hartree
-          fftalg         512
           irdden           1
           irdwfk           1
              ixc     -116133
              kpt      2.52525253E-01  2.52525253E-01  5.00000000E-01
                       3.33333333E-01  3.33333333E-01  0.00000000E+00
           kptopt           0
P           mkmem           2
P          mkqmem           2
P          mk1mem           2
            natom           5
            nband          29
           nbdbuf           4
            ngfft          48      48      80
             nkpt           2
            nstep        2000
             nsym          12
           ntypat           2
              occ      2.000000  2.000000  2.000000  2.000000  2.000000  2.000000
                       2.000000  2.000000  2.000000  2.000000  2.000000  2.000000
                       2.000000  2.000000  2.000000  2.000000  2.000000  2.000000
                       2.000000  2.000000  0.000000  0.000000  0.000000  0.000000
                       0.000000  0.000000  0.000000  0.000000  0.000000
        optdriver           1
            prtwf          -1
            rfdir           1       1       1
           rfelfd           2
            rprim      7.3742740231E+00  0.0000000000E+00  0.0000000000E+00
                      -3.6871370116E+00  6.3863086385E+00  0.0000000000E+00
                       0.0000000000E+00  0.0000000000E+00  1.1403034684E+01
          spgroup         164
           symrel      1  0  0   0  1  0   0  0  1      -1  0  0   0 -1  0   0  0 -1
                      -1  0  0   1  1  0   0  0  1       1  0  0  -1 -1  0   0  0 -1
                       0  1  0  -1 -1  0   0  0  1       0 -1  0   1  1  0   0  0 -1
                       0 -1  0  -1  0  0   0  0  1       0  1  0   1  0  0   0  0 -1
                      -1 -1  0   1  0  0   0  0  1       1  1  0  -1  0  0   0  0 -1
                       1  1  0   0 -1  0   0  0  1      -1 -1  0   0  1  0   0  0 -1
           tolwfr      1.00000000E-20
            typat      1  1  2  2  2
           useylm           1
              wtk        0.50000    0.50000
           xangst     -1.7639711750E-11  2.2529926523E+00  4.5535175010E+00
                       1.9511488715E+00  1.1264963262E+00  1.4807085626E+00
                      -1.7639711750E-11  2.2529926523E+00  2.1359531024E+00
                       1.9511488715E+00  1.1264963262E+00  3.8982729612E+00
                      -2.8882805354E-16 -2.5013243169E-16  0.0000000000E+00
            xcart     -3.3334224270E-11  4.2575390923E+00  8.6049010182E+00
                       3.6871370115E+00  2.1287695462E+00  2.7981336660E+00
                      -3.3334224270E-11  4.2575390923E+00  4.0363663963E+00
                       3.6871370115E+00  2.1287695462E+00  7.3666682879E+00
                      -5.4580592069E-16 -4.7268179286E-16  0.0000000000E+00
             xred      3.3333333333E-01  6.6666666667E-01  7.5461500000E-01
                       6.6666666667E-01  3.3333333333E-01  2.4538500000E-01
                       3.3333333333E-01  6.6666666667E-01  3.5397300000E-01
                       6.6666666667E-01  3.3333333333E-01  6.4602700000E-01
                      -1.1102230246E-16 -7.4014868308E-17  0.0000000000E+00
            znucl       57.00000    8.00000
 
================================================================================
 
 chkinp: Checking input parameters for consistency.
 
================================================================================
== DATASET  1 ==================================================================
-   mpi_nproc: 1, omp_nthreads: -1 (-1 if OMP is not activated)
 

--- !DatasetInfo
iteration_state: {dtset: 1, }
dimensions: {natom: 5, nkpt: 2, mband: 29, nsppol: 1, nspinor: 1, nspden: 1, mpw: 9648, }
cutoff_energies: {ecut:  52.0, pawecutdg:  -1.0, }
electrons: {nelect:   4.00000000E+01, charge:   0.00000000E+00, occopt:   1.00000000E+00, tsmear:   1.00000000E-02, }
meta: {optdriver: 1, rfelfd: 2, }
...

 Real(R)+Recip(G) space primitive vectors, cartesian coordinates (Bohr,Bohr^-1):
 R(1)=  7.3742740  0.0000000  0.0000000  G(1)=  0.1356066  0.0782925  0.0000000
 R(2)= -3.6871370  6.3863086  0.0000000  G(2)=  0.0000000  0.1565850  0.0000000
 R(3)=  0.0000000  0.0000000 11.4030347  G(3)=  0.0000000  0.0000000  0.0876960
 Unit cell volume ucvol=  5.3701896E+02 bohr^3
 Angles (23,13,12)=  9.00000000E+01  9.00000000E+01  1.20000000E+02 degrees
 
 getcut: wavevector=  0.0000  0.0000  0.0000  ngfft=  48  48  80
         ecut(hartree)=     52.000   => boxcut(ratio)=   2.00519
 
--- Pseudopotential description ------------------------------------------------
- pspini: atom type   1  psp file is /scratch/users/j/a/jabreu/pseudos/PBEsol/La.psp8
- pspatm: opening atomic psp file    /scratch/users/j/a/jabreu/pseudos/PBEsol/La.psp8
- La    ONCVPSP-3.3.0  r_core=   2.11664   1.60878   1.85636   1.66739
- 57.00000  11.00000    180112                znucl, zion, pspdat
    8 -116133    3    4       600   0.00000   pspcod,pspxc,lmax,lloc,mmax,r2well
    5.99000000000000    5.00000000000000    0.00000000000000   rchrg,fchrg,qchrg
     nproj     2     2     2     2
     extension_switch     1
  pspatm : epsatm=   29.08531775
         --- l  ekb(1:nproj) -->
             0    6.695600    0.639047
             1    6.383649    1.151322
             2    3.612966    0.847811
             3  -13.718437   -4.858923
 pspatm: atomic psp has been read  and splines computed
 
- pspini: atom type   2  psp file is /scratch/users/j/a/jabreu/pseudos/PBEsol/O.psp8
- pspatm: opening atomic psp file    /scratch/users/j/a/jabreu/pseudos/PBEsol/O.psp8
- O     ONCVPSP-3.3.0  r_core=   1.35509   1.45563   1.26150
-  8.00000   6.00000    180112                znucl, zion, pspdat
    8 -116133    2    4       600   0.00000   pspcod,pspxc,lmax,lloc,mmax,r2well
    5.99000000000000    4.00000000000000    0.00000000000000   rchrg,fchrg,qchrg
     nproj     2     2     1
     extension_switch     1
  pspatm : epsatm=    6.22910522
         --- l  ekb(1:nproj) -->
             0    6.050032    0.820363
             1   -4.739617   -1.153841
             2   -1.335834
 pspatm: atomic psp has been read  and splines computed
 
   3.07431805E+03                                ecore*ucvol(ha*bohr**3)
--------------------------------------------------------------------------------
 
 
 ==>  initialize data related to q vector <== 
 
 The list of irreducible perturbations for this q vector is:
    1)    idir= 1    ipert=   6
    2)    idir= 2    ipert=   6
    3)    idir= 3    ipert=   6
 
================================================================================
 
--------------------------------------------------------------------------------
 Perturbation wavevector (in red.coord.)   0.000000  0.000000  0.000000
 Perturbation : derivative vs k along direction   1
 
 dfpt_looppert : COMMENT -
  In a d/dk calculation, iscf is set to -3 automatically.
 The set of symmetries contains only one element for this perturbation.
 symkpt : not enough symmetry to change the number of k points.
 
--------------------------------------------------------------------------------
 
--------------------------------------------------------------------------------
 
 Initialisation of the first-order wave-functions :
  ireadwf=   0

--- !BeginCycle
iteration_state: {dtset: 1, }
solver: {iscf: 7, nstep: 2000, nline: 4, wfoptalg: 0, }
tolerances: {tolwfr: 1.00E-20, }
...
 
     iter   2DEtotal(Ha)        deltaE(Ha) residm    vres2
-ETOT  1  -43.262993142087     -4.326E+01 9.615E-02 0.000E+00
 ETOT  2  -43.596913618440     -3.339E-01 4.695E-02 0.000E+00
 ETOT  3  -43.648061049425     -5.115E-02 1.388E-02 0.000E+00
 ETOT  4  -43.661712773991     -1.365E-02 1.421E-02 0.000E+00
 ETOT  5  -43.665914026745     -4.201E-03 4.870E-03 0.000E+00
 ETOT  6  -43.667272535389     -1.359E-03 5.323E-03 0.000E+00
 ETOT  7  -43.667722063904     -4.495E-04 2.566E-03 0.000E+00
 ETOT  8  -43.667873410240     -1.513E-04 2.522E-03 0.000E+00
 ETOT  9  -43.667924937159     -5.153E-05 1.777E-03 0.000E+00
 ETOT 10  -43.667942641634     -1.770E-05 1.643E-03 0.000E+00
 ETOT 11  -43.667948770054     -6.128E-06 1.541E-03 0.000E+00
 ETOT 12  -43.667950905190     -2.135E-06 1.445E-03 0.000E+00
 ETOT 13  -43.667951653494     -7.483E-07 1.353E-03 0.000E+00
 ETOT 14  -43.667951917167     -2.637E-07 1.276E-03 0.000E+00
 ETOT 15  -43.667952010559     -9.339E-08 1.192E-03 0.000E+00
 ETOT 16  -43.667952043798     -3.324E-08 1.128E-03 0.000E+00
 ETOT 17  -43.667952055684     -1.189E-08 1.053E-03 0.000E+00
 ETOT 18  -43.667952059954     -4.270E-09 9.973E-04 0.000E+00
 ETOT 19  -43.667952061494     -1.540E-09 9.313E-04 0.000E+00
 ETOT 20  -43.667952062052     -5.581E-10 8.821E-04 0.000E+00
 ETOT 21  -43.667952062255     -2.031E-10 8.246E-04 0.000E+00
 ETOT 22  -43.667952062330     -7.429E-11 7.806E-04 0.000E+00
 ETOT 23  -43.667952062357     -2.709E-11 7.309E-04 0.000E+00
 ETOT 24  -43.667952062367     -1.006E-11 6.912E-04 0.000E+00
 ETOT 25  -43.667952062371     -3.688E-12 6.487E-04 0.000E+00
 ETOT 26  -43.667952062372     -1.386E-12 6.125E-04 0.000E+00
 ETOT 27  -43.667952062373     -5.258E-13 5.764E-04 0.000E+00
 ETOT 28  -43.667952062373     -1.421E-13 5.432E-04 0.000E+00
 ETOT 29  -43.667952062373     -1.634E-13 5.128E-04 0.000E+00
 ETOT 30  -43.667952062373     -2.132E-14 4.822E-04 0.000E+00
 ETOT 31  -43.667952062373      4.974E-14 4.566E-04 0.000E+00
 ETOT 32  -43.667952062373     -3.553E-14 4.285E-04 0.000E+00
 ETOT 33  -43.667952062373      4.263E-14 4.071E-04 0.000E+00
 ETOT 34  -43.667952062373     -7.816E-14 3.811E-04 0.000E+00
 ETOT 35  -43.667952062373      4.263E-14 3.633E-04 0.000E+00
 ETOT 36  -43.667952062373      2.842E-14 3.392E-04 0.000E+00
 ETOT 37  -43.667952062373     -6.395E-14 3.244E-04 0.000E+00
 ETOT 38  -43.667952062373      1.421E-14 3.022E-04 0.000E+00
 ETOT 39  -43.667952062373      2.842E-14 2.899E-04 0.000E+00
 ETOT 40  -43.667952062373     -2.842E-14 2.695E-04 0.000E+00
 ETOT 41  -43.667952062373      6.395E-14 2.593E-04 0.000E+00
 ETOT 42  -43.667952062373      0.000E+00 2.405E-04 0.000E+00
 ETOT 43  -43.667952062373     -4.974E-14 2.320E-04 0.000E+00
 ETOT 44  -43.667952062373      2.842E-14 2.148E-04 0.000E+00
 ETOT 45  -43.667952062373     -1.421E-14 2.077E-04 0.000E+00
 ETOT 46  -43.667952062373      0.000E+00 1.919E-04 0.000E+00
 ETOT 47  -43.667952062373      2.842E-14 1.860E-04 0.000E+00
 ETOT 48  -43.667952062373     -2.132E-14 1.716E-04 0.000E+00
 ETOT 49  -43.667952062373     -7.105E-15 1.666E-04 0.000E+00
 ETOT 50  -43.667952062373     -1.421E-14 1.535E-04 0.000E+00
 ETOT 51  -43.667952062373      0.000E+00 1.493E-04 0.000E+00
 ETOT 52  -43.667952062373      1.421E-14 1.373E-04 0.000E+00
 ETOT 53  -43.667952062373     -1.421E-14 1.338E-04 0.000E+00
 ETOT 54  -43.667952062373      7.105E-15 1.230E-04 0.000E+00
 ETOT 55  -43.667952062373     -7.105E-15 1.200E-04 0.000E+00
 ETOT 56  -43.667952062373      1.421E-14 1.101E-04 0.000E+00
 ETOT 57  -43.667952062373      0.000E+00 1.076E-04 0.000E+00
 ETOT 58  -43.667952062373     -2.132E-14 9.865E-05 0.000E+00
 ETOT 59  -43.667952062373      2.132E-14 9.653E-05 0.000E+00
 ETOT 60  -43.667952062373      0.000E+00 8.840E-05 0.000E+00
 ETOT 61  -43.667952062373      7.105E-15 8.660E-05 0.000E+00
 ETOT 62  -43.667952062373     -1.421E-14 7.924E-05 0.000E+00
 ETOT 63  -43.667952062373      7.105E-15 7.770E-05 0.000E+00
 ETOT 64  -43.667952062373     -7.105E-15 7.104E-05 0.000E+00
 ETOT 65  -43.667952062373      1.421E-14 6.972E-05 0.000E+00
 ETOT 66  -43.667952062373     -7.105E-15 6.371E-05 0.000E+00
 ETOT 67  -43.667952062373     -1.421E-14 6.257E-05 0.000E+00
 ETOT 68  -43.667952062373      1.421E-14 5.714E-05 0.000E+00
 ETOT 69  -43.667952062373      0.000E+00 5.616E-05 0.000E+00
 ETOT 70  -43.667952062373     -1.421E-14 5.126E-05 0.000E+00
 ETOT 71  -43.667952062373      7.105E-15 5.041E-05 0.000E+00
 ETOT 72  -43.667952062373     -1.421E-14 4.599E-05 0.000E+00
 ETOT 73  -43.667952062373      1.421E-14 4.526E-05 0.000E+00
 ETOT 74  -43.667952062373     -2.842E-14 4.127E-05 0.000E+00
 ETOT 75  -43.667952062373      1.421E-14 4.063E-05 0.000E+00
 ETOT 76  -43.667952062373      7.105E-15 3.704E-05 0.000E+00
 ETOT 77  -43.667952062373      0.000E+00 3.648E-05 0.000E+00
 ETOT 78  -43.667952062373      7.105E-15 3.324E-05 0.000E+00
 ETOT 79  -43.667952062373     -7.105E-15 3.276E-05 0.000E+00
 ETOT 80  -43.667952062373      0.000E+00 2.984E-05 0.000E+00
 ETOT 81  -43.667952062373      7.105E-15 2.942E-05 0.000E+00
 ETOT 82  -43.667952062373      0.000E+00 2.679E-05 0.000E+00
 ETOT 83  -43.667952062373     -1.421E-14 2.642E-05 0.000E+00
 ETOT 84  -43.667952062373     -7.105E-15 2.405E-05 0.000E+00
 ETOT 85  -43.667952062373      1.421E-14 2.372E-05 0.000E+00
 ETOT 86  -43.667952062373      1.421E-14 2.159E-05 0.000E+00
 ETOT 87  -43.667952062373     -7.105E-15 2.131E-05 0.000E+00
 ETOT 88  -43.667952062373     -2.132E-14 1.939E-05 0.000E+00
 ETOT 89  -43.667952062373      2.132E-14 1.914E-05 0.000E+00
 ETOT 90  -43.667952062373     -2.842E-14 1.741E-05 0.000E+00
 ETOT 91  -43.667952062373      0.000E+00 1.719E-05 0.000E+00
 ETOT 92  -43.667952062373     -1.421E-14 1.563E-05 0.000E+00
 ETOT 93  -43.667952062373      7.105E-15 1.544E-05 0.000E+00
 ETOT 94  -43.667952062373      7.105E-15 1.404E-05 0.000E+00
 ETOT 95  -43.667952062373      7.105E-15 1.387E-05 0.000E+00
 ETOT 96  -43.667952062373     -7.105E-15 1.261E-05 0.000E+00
 ETOT 97  -43.667952062373      2.842E-14 1.246E-05 0.000E+00
 ETOT 98  -43.667952062373     -4.263E-14 1.132E-05 0.000E+00
 ETOT 99  -43.667952062373      1.421E-14 1.119E-05 0.000E+00
 ETOT  100  -43.667952062373     -7.105E-15 1.017E-05 0.000E+00
 ETOT  101  -43.667952062373     -7.105E-15 1.006E-05 0.000E+00
 ETOT  102  -43.667952062373      0.000E+00 9.133E-06 0.000E+00
 ETOT  103  -43.667952062373     -1.421E-14 9.035E-06 0.000E+00
 ETOT  104  -43.667952062373      2.132E-14 8.203E-06 0.000E+00
 ETOT  105  -43.667952062373      7.105E-15 8.117E-06 0.000E+00
 ETOT  106  -43.667952062373      0.000E+00 7.368E-06 0.000E+00
 ETOT  107  -43.667952062373      2.132E-14 7.293E-06 0.000E+00
 ETOT  108  -43.667952062373     -7.105E-15 6.618E-06 0.000E+00
 ETOT  109  -43.667952062373     -1.421E-14 6.553E-06 0.000E+00
 ETOT  110  -43.667952062373     -7.105E-15 5.945E-06 0.000E+00
 ETOT  111  -43.667952062373      0.000E+00 5.888E-06 0.000E+00
 ETOT  112  -43.667952062373      7.105E-15 5.340E-06 0.000E+00
 ETOT  113  -43.667952062373      2.132E-14 5.290E-06 0.000E+00
 ETOT  114  -43.667952062373     -2.132E-14 4.797E-06 0.000E+00
 ETOT  115  -43.667952062373      7.105E-15 4.754E-06 0.000E+00
 ETOT  116  -43.667952062373     -7.105E-15 4.309E-06 0.000E+00
 ETOT  117  -43.667952062373      7.105E-15 4.271E-06 0.000E+00
 ETOT  118  -43.667952062373      7.105E-15 3.871E-06 0.000E+00
 ETOT  119  -43.667952062373     -3.553E-14 3.838E-06 0.000E+00
 ETOT  120  -43.667952062373      2.842E-14 3.477E-06 0.000E+00
 ETOT  121  -43.667952062373     -7.105E-15 3.449E-06 0.000E+00
 ETOT  122  -43.667952062373      7.105E-15 3.124E-06 0.000E+00
 ETOT  123  -43.667952062373      7.105E-15 3.099E-06 0.000E+00
 ETOT  124  -43.667952062373      7.105E-15 2.806E-06 0.000E+00
 ETOT  125  -43.667952062373      7.105E-15 2.785E-06 0.000E+00
 ETOT  126  -43.667952062373     -2.842E-14 2.521E-06 0.000E+00
 ETOT  127  -43.667952062373      7.105E-15 2.503E-06 0.000E+00
 ETOT  128  -43.667952062373      7.105E-15 2.265E-06 0.000E+00
 ETOT  129  -43.667952062373     -7.105E-15 2.249E-06 0.000E+00
 ETOT  130  -43.667952062373     -1.421E-14 2.035E-06 0.000E+00
 ETOT  131  -43.667952062373      0.000E+00 2.021E-06 0.000E+00
 ETOT  132  -43.667952062373      1.421E-14 1.828E-06 0.000E+00
 ETOT  133  -43.667952062373      2.132E-14 1.817E-06 0.000E+00
 ETOT  134  -43.667952062373     -1.421E-14 1.642E-06 0.000E+00
 ETOT  135  -43.667952062373      7.105E-15 1.633E-06 0.000E+00
 ETOT  136  -43.667952062373     -1.421E-14 1.475E-06 0.000E+00
 ETOT  137  -43.667952062373     -2.132E-14 1.467E-06 0.000E+00
 ETOT  138  -43.667952062373      2.132E-14 1.325E-06 0.000E+00
 ETOT  139  -43.667952062373      1.421E-14 1.319E-06 0.000E+00
 ETOT  140  -43.667952062373      1.421E-14 1.191E-06 0.000E+00
 ETOT  141  -43.667952062373     -2.842E-14 1.185E-06 0.000E+00
 ETOT  142  -43.667952062373      0.000E+00 1.070E-06 0.000E+00
 ETOT  143  -43.667952062373      1.421E-14 1.065E-06 0.000E+00
 ETOT  144  -43.667952062373     -7.105E-15 9.611E-07 0.000E+00
 ETOT  145  -43.667952062373      0.000E+00 9.572E-07 0.000E+00
 ETOT  146  -43.667952062373      0.000E+00 8.634E-07 0.000E+00
 ETOT  147  -43.667952062373      0.000E+00 8.603E-07 0.000E+00
 ETOT  148  -43.667952062373      7.105E-15 7.757E-07 0.000E+00
 ETOT  149  -43.667952062373     -7.105E-15 7.732E-07 0.000E+00
 ETOT  150  -43.667952062373     -7.105E-15 6.969E-07 0.000E+00
 ETOT  151  -43.667952062373      1.421E-14 6.949E-07 0.000E+00
 ETOT  152  -43.667952062373     -7.105E-15 6.261E-07 0.000E+00
 ETOT  153  -43.667952062373      0.000E+00 6.246E-07 0.000E+00
 ETOT  154  -43.667952062373      7.105E-15 5.625E-07 0.000E+00
 ETOT  155  -43.667952062373     -7.105E-15 5.613E-07 0.000E+00
 ETOT  156  -43.667952062373      1.421E-14 5.054E-07 0.000E+00
 ETOT  157  -43.667952062373     -7.105E-15 5.045E-07 0.000E+00
 ETOT  158  -43.667952062373      0.000E+00 4.541E-07 0.000E+00
 ETOT  159  -43.667952062373      0.000E+00 4.535E-07 0.000E+00
 ETOT  160  -43.667952062373      0.000E+00 4.080E-07 0.000E+00
 ETOT  161  -43.667952062373      0.000E+00 4.076E-07 0.000E+00
 ETOT  162  -43.667952062373      0.000E+00 3.665E-07 0.000E+00
 ETOT  163  -43.667952062373      0.000E+00 3.663E-07 0.000E+00
 ETOT  164  -43.667952062373      0.000E+00 3.293E-07 0.000E+00
 ETOT  165  -43.667952062373      0.000E+00 3.293E-07 0.000E+00
 ETOT  166  -43.667952062373      0.000E+00 2.959E-07 0.000E+00
 ETOT  167  -43.667952062373      7.105E-15 2.959E-07 0.000E+00
 ETOT  168  -43.667952062373     -7.105E-15 2.658E-07 0.000E+00
 ETOT  169  -43.667952062373      0.000E+00 2.660E-07 0.000E+00
 ETOT  170  -43.667952062373      0.000E+00 2.388E-07 0.000E+00
 ETOT  171  -43.667952062373     -2.842E-14 2.391E-07 0.000E+00
 ETOT  172  -43.667952062373      2.842E-14 2.146E-07 0.000E+00
 ETOT  173  -43.667952062373     -2.842E-14 2.149E-07 0.000E+00
 ETOT  174  -43.667952062373      2.842E-14 1.928E-07 0.000E+00
 ETOT  175  -43.667952062373     -7.105E-15 1.932E-07 0.000E+00
 ETOT  176  -43.667952062373      0.000E+00 1.732E-07 0.000E+00
 ETOT  177  -43.667952062373      7.105E-15 1.736E-07 0.000E+00
 ETOT  178  -43.667952062373      0.000E+00 1.556E-07 0.000E+00
 ETOT  179  -43.667952062373      7.105E-15 1.560E-07 0.000E+00
 ETOT  180  -43.667952062373     -7.105E-15 1.398E-07 0.000E+00
 ETOT  181  -43.667952062373      0.000E+00 1.403E-07 0.000E+00
 ETOT  182  -43.667952062373      0.000E+00 1.256E-07 0.000E+00
 ETOT  183  -43.667952062373      0.000E+00 1.261E-07 0.000E+00
 ETOT  184  -43.667952062373      7.105E-15 1.129E-07 0.000E+00
 ETOT  185  -43.667952062373     -7.105E-15 1.133E-07 0.000E+00
 ETOT  186  -43.667952062373      0.000E+00 1.014E-07 0.000E+00
 ETOT  187  -43.667952062373      0.000E+00 1.019E-07 0.000E+00
 ETOT  188  -43.667952062373     -7.105E-15 9.110E-08 0.000E+00
 ETOT  189  -43.667952062373      1.421E-14 9.155E-08 0.000E+00
 ETOT  190  -43.667952062373      7.105E-15 8.185E-08 0.000E+00
 ETOT  191  -43.667952062373     -1.421E-14 8.229E-08 0.000E+00
 ETOT  192  -43.667952062373      7.105E-15 7.354E-08 0.000E+00
 ETOT  193  -43.667952062373     -1.421E-14 7.397E-08 0.000E+00
 ETOT  194  -43.667952062373      7.105E-15 6.607E-08 0.000E+00
 ETOT  195  -43.667952062373      1.421E-14 6.649E-08 0.000E+00
 ETOT  196  -43.667952062373      0.000E+00 5.936E-08 0.000E+00
 ETOT  197  -43.667952062373      0.000E+00 5.976E-08 0.000E+00
 ETOT  198  -43.667952062373      0.000E+00 5.333E-08 0.000E+00
 ETOT  199  -43.667952062373      0.000E+00 5.372E-08 0.000E+00
 ETOT  200  -43.667952062373      1.421E-14 4.792E-08 0.000E+00
 ETOT  201  -43.667952062373     -7.105E-15 4.828E-08 0.000E+00
 ETOT  202  -43.667952062373     -7.105E-15 4.305E-08 0.000E+00
 ETOT  203  -43.667952062373      0.000E+00 4.340E-08 0.000E+00
 ETOT  204  -43.667952062373      2.842E-14 3.868E-08 0.000E+00
 ETOT  205  -43.667952062373     -2.132E-14 3.901E-08 0.000E+00
 ETOT  206  -43.667952062373      1.421E-14 3.475E-08 0.000E+00
 ETOT  207  -43.667952062373     -7.105E-15 3.506E-08 0.000E+00
 ETOT  208  -43.667952062373      0.000E+00 3.122E-08 0.000E+00
 ETOT  209  -43.667952062373     -7.105E-15 3.152E-08 0.000E+00
 ETOT  210  -43.667952062373     -2.842E-14 2.805E-08 0.000E+00
 ETOT  211  -43.667952062373      1.421E-14 2.833E-08 0.000E+00
 ETOT  212  -43.667952062373      1.421E-14 2.520E-08 0.000E+00
 ETOT  213  -43.667952062373      0.000E+00 2.546E-08 0.000E+00
 ETOT  214  -43.667952062373     -1.421E-14 2.265E-08 0.000E+00
 ETOT  215  -43.667952062373      0.000E+00 2.289E-08 0.000E+00
 ETOT  216  -43.667952062373      1.421E-14 2.035E-08 0.000E+00
 ETOT  217  -43.667952062373     -2.842E-14 2.057E-08 0.000E+00
 ETOT  218  -43.667952062373      1.421E-14 1.828E-08 0.000E+00
 ETOT  219  -43.667952062373     -1.421E-14 1.849E-08 0.000E+00
 ETOT  220  -43.667952062373      0.000E+00 1.642E-08 0.000E+00
 ETOT  221  -43.667952062373      0.000E+00 1.662E-08 0.000E+00
 ETOT  222  -43.667952062373      1.421E-14 1.476E-08 0.000E+00
 ETOT  223  -43.667952062373      0.000E+00 1.494E-08 0.000E+00
 ETOT  224  -43.667952062373     -1.421E-14 1.326E-08 0.000E+00
 ETOT  225  -43.667952062373     -1.421E-14 1.343E-08 0.000E+00
 ETOT  226  -43.667952062373      7.105E-15 1.191E-08 0.000E+00
 ETOT  227  -43.667952062373      0.000E+00 1.207E-08 0.000E+00
 ETOT  228  -43.667952062373     -7.105E-15 1.070E-08 0.000E+00
 ETOT  229  -43.667952062373      2.842E-14 1.085E-08 0.000E+00
 ETOT  230  -43.667952062373      1.421E-14 9.616E-09 0.000E+00
 ETOT  231  -43.667952062373     -2.132E-14 9.753E-09 0.000E+00
 ETOT  232  -43.667952062373      1.421E-14 8.639E-09 0.000E+00
 ETOT  233  -43.667952062373     -7.105E-15 8.766E-09 0.000E+00
 ETOT  234  -43.667952062373      7.105E-15 7.762E-09 0.000E+00
 ETOT  235  -43.667952062373     -2.842E-14 7.879E-09 0.000E+00
 ETOT  236  -43.667952062373      2.132E-14 6.974E-09 0.000E+00
 ETOT  237  -43.667952062373     -7.105E-15 7.082E-09 0.000E+00
 ETOT  238  -43.667952062373     -7.105E-15 6.266E-09 0.000E+00
 ETOT  239  -43.667952062373      2.842E-14 6.366E-09 0.000E+00
 ETOT  240  -43.667952062373     -1.421E-14 5.630E-09 0.000E+00
 ETOT  241  -43.667952062373     -7.105E-15 5.722E-09 0.000E+00
 ETOT  242  -43.667952062373     -7.105E-15 5.058E-09 0.000E+00
 ETOT  243  -43.667952062373      7.105E-15 5.143E-09 0.000E+00
 ETOT  244  -43.667952062373      1.421E-14 4.544E-09 0.000E+00
 ETOT  245  -43.667952062373     -2.132E-14 4.623E-09 0.000E+00
 ETOT  246  -43.667952062373      0.000E+00 4.083E-09 0.000E+00
 ETOT  247  -43.667952062373      1.421E-14 4.155E-09 0.000E+00
 ETOT  248  -43.667952062373      7.105E-15 3.668E-09 0.000E+00
 ETOT  249  -43.667952062373     -2.842E-14 3.735E-09 0.000E+00
 ETOT  250  -43.667952062373      1.421E-14 3.296E-09 0.000E+00
 ETOT  251  -43.667952062373     -1.421E-14 3.357E-09 0.000E+00
 ETOT  252  -43.667952062373      2.132E-14 2.961E-09 0.000E+00
 ETOT  253  -43.667952062373      7.105E-15 3.017E-09 0.000E+00
 ETOT  254  -43.667952062373      0.000E+00 2.661E-09 0.000E+00
 ETOT  255  -43.667952062373      7.105E-15 2.712E-09 0.000E+00
 ETOT  256  -43.667952062373     -7.105E-15 2.390E-09 0.000E+00
 ETOT  257  -43.667952062373      7.105E-15 2.438E-09 0.000E+00
 ETOT  258  -43.667952062373     -7.105E-15 2.148E-09 0.000E+00
 ETOT  259  -43.667952062373      1.421E-14 2.191E-09 0.000E+00
 ETOT  260  -43.667952062373     -4.263E-14 1.930E-09 0.000E+00
 ETOT  261  -43.667952062373      3.553E-14 1.969E-09 0.000E+00
 ETOT  262  -43.667952062373     -7.105E-15 1.734E-09 0.000E+00
 ETOT  263  -43.667952062373     -1.421E-14 1.770E-09 0.000E+00
 ETOT  264  -43.667952062373      1.421E-14 1.558E-09 0.000E+00
 ETOT  265  -43.667952062373      0.000E+00 1.591E-09 0.000E+00
 ETOT  266  -43.667952062373      1.421E-14 1.400E-09 0.000E+00
 ETOT  267  -43.667952062373     -4.263E-14 1.430E-09 0.000E+00
 ETOT  268  -43.667952062373      2.132E-14 1.257E-09 0.000E+00
 ETOT  269  -43.667952062373      7.105E-15 1.285E-09 0.000E+00
 ETOT  270  -43.667952062373     -7.105E-15 1.130E-09 0.000E+00
 ETOT  271  -43.667952062373      0.000E+00 1.155E-09 0.000E+00
 ETOT  272  -43.667952062373     -7.105E-15 1.015E-09 0.000E+00
 ETOT  273  -43.667952062373      7.105E-15 1.038E-09 0.000E+00
 ETOT  274  -43.667952062373     -7.105E-15 9.120E-10 0.000E+00
 ETOT  275  -43.667952062373      7.105E-15 9.333E-10 0.000E+00
 ETOT  276  -43.667952062373     -1.421E-14 8.194E-10 0.000E+00
 ETOT  277  -43.667952062373     -7.105E-15 8.388E-10 0.000E+00
 ETOT  278  -43.667952062373      1.421E-14 7.362E-10 0.000E+00
 ETOT  279  -43.667952062373      1.421E-14 7.540E-10 0.000E+00
 ETOT  280  -43.667952062373      0.000E+00 6.615E-10 0.000E+00
 ETOT  281  -43.667952062373     -7.105E-15 6.777E-10 0.000E+00
 ETOT  282  -43.667952062373     -7.105E-15 5.943E-10 0.000E+00
 ETOT  283  -43.667952062373      1.421E-14 6.091E-10 0.000E+00
 ETOT  284  -43.667952062373     -1.421E-14 5.340E-10 0.000E+00
 ETOT  285  -43.667952062373     -2.842E-14 5.474E-10 0.000E+00
 ETOT  286  -43.667952062373      1.421E-14 4.798E-10 0.000E+00
 ETOT  287  -43.667952062373     -7.105E-15 4.920E-10 0.000E+00
 ETOT  288  -43.667952062373     -7.105E-15 4.311E-10 0.000E+00
 ETOT  289  -43.667952062373      0.000E+00 4.422E-10 0.000E+00
 ETOT  290  -43.667952062373      2.132E-14 3.873E-10 0.000E+00
 ETOT  291  -43.667952062373      2.132E-14 3.975E-10 0.000E+00
 ETOT  292  -43.667952062373     -2.842E-14 3.480E-10 0.000E+00
 ETOT  293  -43.667952062373      0.000E+00 3.573E-10 0.000E+00
 ETOT  294  -43.667952062373     -7.105E-15 3.126E-10 0.000E+00
 ETOT  295  -43.667952062373      2.132E-14 3.211E-10 0.000E+00
 ETOT  296  -43.667952062373     -2.132E-14 2.809E-10 0.000E+00
 ETOT  297  -43.667952062373     -7.105E-15 2.886E-10 0.000E+00
 ETOT  298  -43.667952062373      2.842E-14 2.524E-10 0.000E+00
 ETOT  299  -43.667952062373     -2.132E-14 2.594E-10 0.000E+00
 ETOT  300  -43.667952062373      7.105E-15 2.268E-10 0.000E+00
 ETOT  301  -43.667952062373      0.000E+00 2.331E-10 0.000E+00
 ETOT  302  -43.667952062373      0.000E+00 2.037E-10 0.000E+00
 ETOT  303  -43.667952062373      1.421E-14 2.095E-10 0.000E+00
 ETOT  304  -43.667952062373     -1.421E-14 1.831E-10 0.000E+00
 ETOT  305  -43.667952062373      0.000E+00 1.883E-10 0.000E+00
 ETOT  306  -43.667952062373      7.105E-15 1.645E-10 0.000E+00
 ETOT  307  -43.667952062373     -7.105E-15 1.693E-10 0.000E+00
 ETOT  308  -43.667952062373      0.000E+00 1.478E-10 0.000E+00
 ETOT  309  -43.667952062373      1.421E-14 1.521E-10 0.000E+00
 ETOT  310  -43.667952062373      2.842E-14 1.328E-10 0.000E+00
 ETOT  311  -43.667952062373     -1.421E-14 1.367E-10 0.000E+00
 ETOT  312  -43.667952062373     -7.105E-15 1.193E-10 0.000E+00
 ETOT  313  -43.667952062373     -7.105E-15 1.229E-10 0.000E+00
 ETOT  314  -43.667952062373      7.105E-15 1.072E-10 0.000E+00
 ETOT  315  -43.667952062373     -7.105E-15 1.104E-10 0.000E+00
 ETOT  316  -43.667952062373      1.421E-14 9.630E-11 0.000E+00
 ETOT  317  -43.667952062373      0.000E+00 9.926E-11 0.000E+00
 ETOT  318  -43.667952062373      0.000E+00 8.652E-11 0.000E+00
 ETOT  319  -43.667952062373      7.105E-15 8.921E-11 0.000E+00
 ETOT  320  -43.667952062373      0.000E+00 7.774E-11 0.000E+00
 ETOT  321  -43.667952062373     -7.105E-15 8.018E-11 0.000E+00
 ETOT  322  -43.667952062373      1.421E-14 6.985E-11 0.000E+00
 ETOT  323  -43.667952062373     -4.263E-14 7.206E-11 0.000E+00
 ETOT  324  -43.667952062373      3.553E-14 6.276E-11 0.000E+00
 ETOT  325  -43.667952062373     -2.132E-14 6.476E-11 0.000E+00
 ETOT  326  -43.667952062373      7.105E-15 5.639E-11 0.000E+00
 ETOT  327  -43.667952062373     -7.105E-15 5.821E-11 0.000E+00
 ETOT  328  -43.667952062373      2.842E-14 5.066E-11 0.000E+00
 ETOT  329  -43.667952062373     -1.421E-14 5.231E-11 0.000E+00
 ETOT  330  -43.667952062373     -1.421E-14 4.552E-11 0.000E+00
 ETOT  331  -43.667952062373      2.842E-14 4.702E-11 0.000E+00
 ETOT  332  -43.667952062373      7.105E-15 4.090E-11 0.000E+00
 ETOT  333  -43.667952062373     -7.105E-15 4.226E-11 0.000E+00
 ETOT  334  -43.667952062373      7.105E-15 3.675E-11 0.000E+00
 ETOT  335  -43.667952062373     -7.105E-15 3.798E-11 0.000E+00
 ETOT  336  -43.667952062373     -1.421E-14 3.302E-11 0.000E+00
 ETOT  337  -43.667952062373     -7.105E-15 3.413E-11 0.000E+00
 ETOT  338  -43.667952062373      7.105E-15 2.966E-11 0.000E+00
 ETOT  339  -43.667952062373      7.105E-15 3.067E-11 0.000E+00
 ETOT  340  -43.667952062373     -2.842E-14 2.665E-11 0.000E+00
 ETOT  341  -43.667952062373      3.553E-14 2.757E-11 0.000E+00
 ETOT  342  -43.667952062373     -3.553E-14 2.395E-11 0.000E+00
 ETOT  343  -43.667952062373     -1.421E-14 2.478E-11 0.000E+00
 ETOT  344  -43.667952062373      0.000E+00 2.152E-11 0.000E+00
 ETOT  345  -43.667952062373      7.105E-15 2.227E-11 0.000E+00
 ETOT  346  -43.667952062373      7.105E-15 1.933E-11 0.000E+00
 ETOT  347  -43.667952062373      7.105E-15 2.001E-11 0.000E+00
 ETOT  348  -43.667952062373     -1.421E-14 1.737E-11 0.000E+00
 ETOT  349  -43.667952062373      7.105E-15 1.799E-11 0.000E+00
 ETOT  350  -43.667952062373     -7.105E-15 1.561E-11 0.000E+00
 ETOT  351  -43.667952062373      2.842E-14 1.616E-11 0.000E+00
 ETOT  352  -43.667952062373     -7.105E-15 1.402E-11 0.000E+00
 ETOT  353  -43.667952062373      7.105E-15 1.453E-11 0.000E+00
 ETOT  354  -43.667952062373     -2.132E-14 1.260E-11 0.000E+00
 ETOT  355  -43.667952062373      0.000E+00 1.306E-11 0.000E+00
 ETOT  356  -43.667952062373     -7.105E-15 1.132E-11 0.000E+00
 ETOT  357  -43.667952062373      0.000E+00 1.173E-11 0.000E+00
 ETOT  358  -43.667952062373      1.421E-14 1.017E-11 0.000E+00
 ETOT  359  -43.667952062373     -1.421E-14 1.054E-11 0.000E+00
 ETOT  360  -43.667952062373      1.421E-14 9.138E-12 0.000E+00
 ETOT  361  -43.667952062373      0.000E+00 9.477E-12 0.000E+00
 ETOT  362  -43.667952062373      0.000E+00 8.211E-12 0.000E+00
 ETOT  363  -43.667952062373      7.105E-15 8.517E-12 0.000E+00
 ETOT  364  -43.667952062373      1.421E-14 7.377E-12 0.000E+00
 ETOT  365  -43.667952062373     -1.421E-14 7.654E-12 0.000E+00
 ETOT  366  -43.667952062373      2.842E-14 6.628E-12 0.000E+00
 ETOT  367  -43.667952062373     -2.842E-14 6.879E-12 0.000E+00
 ETOT  368  -43.667952062373     -2.842E-14 5.956E-12 0.000E+00
 ETOT  369  -43.667952062373      6.395E-14 6.182E-12 0.000E+00
 ETOT  370  -43.667952062373     -4.263E-14 5.351E-12 0.000E+00
 ETOT  371  -43.667952062373      7.105E-15 5.556E-12 0.000E+00
 ETOT  372  -43.667952062373      0.000E+00 4.808E-12 0.000E+00
 ETOT  373  -43.667952062373     -2.842E-14 4.993E-12 0.000E+00
 ETOT  374  -43.667952062373      2.842E-14 4.320E-12 0.000E+00
 ETOT  375  -43.667952062373     -7.105E-15 4.487E-12 0.000E+00
 ETOT  376  -43.667952062373      0.000E+00 3.881E-12 0.000E+00
 ETOT  377  -43.667952062373      2.132E-14 4.033E-12 0.000E+00
 ETOT  378  -43.667952062373     -1.421E-14 3.487E-12 0.000E+00
 ETOT  379  -43.667952062373      2.132E-14 3.624E-12 0.000E+00
 ETOT  380  -43.667952062373      7.105E-15 3.133E-12 0.000E+00
 ETOT  381  -43.667952062373     -3.553E-14 3.257E-12 0.000E+00
 ETOT  382  -43.667952062373      2.132E-14 2.815E-12 0.000E+00
 ETOT  383  -43.667952062373     -7.105E-15 2.927E-12 0.000E+00
 ETOT  384  -43.667952062373     -2.842E-14 2.530E-12 0.000E+00
 ETOT  385  -43.667952062373      2.132E-14 2.630E-12 0.000E+00
 ETOT  386  -43.667952062373      0.000E+00 2.273E-12 0.000E+00
 ETOT  387  -43.667952062373     -7.105E-15 2.364E-12 0.000E+00
 ETOT  388  -43.667952062373      0.000E+00 2.042E-12 0.000E+00
 ETOT  389  -43.667952062373      0.000E+00 2.124E-12 0.000E+00
 ETOT  390  -43.667952062373      0.000E+00 1.835E-12 0.000E+00
 ETOT  391  -43.667952062373      0.000E+00 1.909E-12 0.000E+00
 ETOT  392  -43.667952062373      2.842E-14 1.649E-12 0.000E+00
 ETOT  393  -43.667952062373      0.000E+00 1.716E-12 0.000E+00
 ETOT  394  -43.667952062373      0.000E+00 1.481E-12 0.000E+00
 ETOT  395  -43.667952062373     -2.132E-14 1.542E-12 0.000E+00
 ETOT  396  -43.667952062373      0.000E+00 1.331E-12 0.000E+00
 ETOT  397  -43.667952062373     -7.105E-15 1.386E-12 0.000E+00
 ETOT  398  -43.667952062373      1.421E-14 1.196E-12 0.000E+00
 ETOT  399  -43.667952062373     -7.105E-15 1.245E-12 0.000E+00
 ETOT  400  -43.667952062373     -2.842E-14 1.074E-12 0.000E+00
 ETOT  401  -43.667952062373      2.842E-14 1.119E-12 0.000E+00
 ETOT  402  -43.667952062373     -2.842E-14 9.654E-13 0.000E+00
 ETOT  403  -43.667952062373      2.842E-14 1.006E-12 0.000E+00
 ETOT  404  -43.667952062373     -1.421E-14 8.674E-13 0.000E+00
 ETOT  405  -43.667952062373      0.000E+00 9.038E-13 0.000E+00
 ETOT  406  -43.667952062373     -7.105E-15 7.794E-13 0.000E+00
 ETOT  407  -43.667952062373      4.263E-14 8.122E-13 0.000E+00
 ETOT  408  -43.667952062373     -2.842E-14 7.003E-13 0.000E+00
 ETOT  409  -43.667952062373      1.421E-14 7.299E-13 0.000E+00
 ETOT  410  -43.667952062373      0.000E+00 6.292E-13 0.000E+00
 ETOT  411  -43.667952062373     -7.105E-15 6.559E-13 0.000E+00
 ETOT  412  -43.667952062373      2.132E-14 5.654E-13 0.000E+00
 ETOT  413  -43.667952062373     -7.105E-15 5.895E-13 0.000E+00
 ETOT  414  -43.667952062373     -7.105E-15 5.080E-13 0.000E+00
 ETOT  415  -43.667952062373      0.000E+00 5.297E-13 0.000E+00
 ETOT  416  -43.667952062373      7.105E-15 4.564E-13 0.000E+00
 ETOT  417  -43.667952062373     -1.421E-14 4.761E-13 0.000E+00
 ETOT  418  -43.667952062373      0.000E+00 4.101E-13 0.000E+00
 ETOT  419  -43.667952062373      1.421E-14 4.278E-13 0.000E+00
 ETOT  420  -43.667952062373     -2.132E-14 3.685E-13 0.000E+00
 ETOT  421  -43.667952062373      7.105E-15 3.845E-13 0.000E+00
 ETOT  422  -43.667952062373     -7.105E-15 3.311E-13 0.000E+00
 ETOT  423  -43.667952062373      1.421E-14 3.455E-13 0.000E+00
 ETOT  424  -43.667952062373      0.000E+00 2.975E-13 0.000E+00
 ETOT  425  -43.667952062373      7.105E-15 3.105E-13 0.000E+00
 ETOT  426  -43.667952062373     -1.421E-14 2.673E-13 0.000E+00
 ETOT  427  -43.667952062373     -7.105E-15 2.790E-13 0.000E+00
 ETOT  428  -43.667952062373      0.000E+00 2.402E-13 0.000E+00
 ETOT  429  -43.667952062373      7.105E-15 2.507E-13 0.000E+00
 ETOT  430  -43.667952062373     -1.421E-14 2.158E-13 0.000E+00
 ETOT  431  -43.667952062373      0.000E+00 2.253E-13 0.000E+00
 ETOT  432  -43.667952062373      0.000E+00 1.939E-13 0.000E+00
 ETOT  433  -43.667952062373      2.842E-14 2.025E-13 0.000E+00
 ETOT  434  -43.667952062373      0.000E+00 1.742E-13 0.000E+00
 ETOT  435  -43.667952062373     -2.842E-14 1.820E-13 0.000E+00
 ETOT  436  -43.667952062373      7.105E-15 1.565E-13 0.000E+00
 ETOT  437  -43.667952062373      7.105E-15 1.635E-13 0.000E+00
 ETOT  438  -43.667952062373     -7.105E-15 1.406E-13 0.000E+00
 ETOT  439  -43.667952062373      0.000E+00 1.470E-13 0.000E+00
 ETOT  440  -43.667952062373      0.000E+00 1.264E-13 0.000E+00
 ETOT  441  -43.667952062373      0.000E+00 1.321E-13 0.000E+00
 ETOT  442  -43.667952062373      7.105E-15 1.135E-13 0.000E+00
 ETOT  443  -43.667952062373      7.105E-15 1.187E-13 0.000E+00
 ETOT  444  -43.667952062373     -1.421E-14 1.020E-13 0.000E+00
 ETOT  445  -43.667952062373      1.421E-14 1.066E-13 0.000E+00
 ETOT  446  -43.667952062373     -7.105E-15 9.166E-14 0.000E+00
 ETOT  447  -43.667952062373     -7.105E-15 9.583E-14 0.000E+00
 ETOT  448  -43.667952062373      1.421E-14 8.236E-14 0.000E+00
 ETOT  449  -43.667952062373     -1.421E-14 8.612E-14 0.000E+00
 ETOT  450  -43.667952062373      0.000E+00 7.400E-14 0.000E+00
 ETOT  451  -43.667952062373      1.421E-14 7.739E-14 0.000E+00
 ETOT  452  -43.667952062373      0.000E+00 6.649E-14 0.000E+00
 ETOT  453  -43.667952062373      0.000E+00 6.955E-14 0.000E+00
 ETOT  454  -43.667952062373     -1.421E-14 5.974E-14 0.000E+00
 ETOT  455  -43.667952062373      0.000E+00 6.250E-14 0.000E+00
 ETOT  456  -43.667952062373      7.105E-15 5.368E-14 0.000E+00
 ETOT  457  -43.667952062373      1.421E-14 5.616E-14 0.000E+00
 ETOT  458  -43.667952062373     -7.105E-15 4.823E-14 0.000E+00
 ETOT  459  -43.667952062373      0.000E+00 5.047E-14 0.000E+00
 ETOT  460  -43.667952062373     -7.105E-15 4.334E-14 0.000E+00
 ETOT  461  -43.667952062373     -7.105E-15 4.535E-14 0.000E+00
 ETOT  462  -43.667952062373      7.105E-15 3.894E-14 0.000E+00
 ETOT  463  -43.667952062373      1.421E-14 4.076E-14 0.000E+00
 ETOT  464  -43.667952062373      0.000E+00 3.499E-14 0.000E+00
 ETOT  465  -43.667952062373      0.000E+00 3.662E-14 0.000E+00
 ETOT  466  -43.667952062373     -7.105E-15 3.144E-14 0.000E+00
 ETOT  467  -43.667952062373      0.000E+00 3.291E-14 0.000E+00
 ETOT  468  -43.667952062373      1.421E-14 2.825E-14 0.000E+00
 ETOT  469  -43.667952062373     -1.421E-14 2.958E-14 0.000E+00
 ETOT  470  -43.667952062373     -1.421E-14 2.538E-14 0.000E+00
 ETOT  471  -43.667952062373      0.000E+00 2.658E-14 0.000E+00
 ETOT  472  -43.667952062373      2.132E-14 2.280E-14 0.000E+00
 ETOT  473  -43.667952062373     -2.842E-14 2.388E-14 0.000E+00
 ETOT  474  -43.667952062373      2.132E-14 2.049E-14 0.000E+00
 ETOT  475  -43.667952062373     -1.421E-14 2.146E-14 0.000E+00
 ETOT  476  -43.667952062373      7.105E-15 1.841E-14 0.000E+00
 ETOT  477  -43.667952062373      7.105E-15 1.929E-14 0.000E+00
 ETOT  478  -43.667952062373      1.421E-14 1.654E-14 0.000E+00
 ETOT  479  -43.667952062373     -1.421E-14 1.733E-14 0.000E+00
 ETOT  480  -43.667952062373      7.105E-15 1.486E-14 0.000E+00
 ETOT  481  -43.667952062373     -2.842E-14 1.557E-14 0.000E+00
 ETOT  482  -43.667952062373      2.132E-14 1.336E-14 0.000E+00
 ETOT  483  -43.667952062373      7.105E-15 1.399E-14 0.000E+00
 ETOT  484  -43.667952062373      0.000E+00 1.200E-14 0.000E+00
 ETOT  485  -43.667952062373      7.105E-15 1.258E-14 0.000E+00
 ETOT  486  -43.667952062373     -2.132E-14 1.078E-14 0.000E+00
 ETOT  487  -43.667952062373      0.000E+00 1.130E-14 0.000E+00
 ETOT  488  -43.667952062373      1.421E-14 9.688E-15 0.000E+00
 ETOT  489  -43.667952062373     -2.132E-14 1.016E-14 0.000E+00
 ETOT  490  -43.667952062373      2.132E-14 8.705E-15 0.000E+00
 ETOT  491  -43.667952062373      0.000E+00 9.126E-15 0.000E+00
 ETOT  492  -43.667952062373     -2.132E-14 7.821E-15 0.000E+00
 ETOT  493  -43.667952062373     -7.105E-15 8.201E-15 0.000E+00
 ETOT  494  -43.667952062373     -7.105E-15 7.028E-15 0.000E+00
 ETOT  495  -43.667952062373      1.421E-14 7.369E-15 0.000E+00
 ETOT  496  -43.667952062373     -1.421E-14 6.314E-15 0.000E+00
 ETOT  497  -43.667952062373      7.105E-15 6.622E-15 0.000E+00
 ETOT  498  -43.667952062373      7.105E-15 5.674E-15 0.000E+00
 ETOT  499  -43.667952062373      0.000E+00 5.951E-15 0.000E+00
 ETOT  500  -43.667952062373      1.421E-14 5.098E-15 0.000E+00
 ETOT  501  -43.667952062373      1.421E-14 5.347E-15 0.000E+00
 ETOT  502  -43.667952062373     -1.421E-14 4.581E-15 0.000E+00
 ETOT  503  -43.667952062373      2.132E-14 4.805E-15 0.000E+00
 ETOT  504  -43.667952062373     -7.105E-15 4.116E-15 0.000E+00
 ETOT  505  -43.667952062373     -7.105E-15 4.318E-15 0.000E+00
 ETOT  506  -43.667952062373      0.000E+00 3.698E-15 0.000E+00
 ETOT  507  -43.667952062373     -3.553E-14 3.880E-15 0.000E+00
 ETOT  508  -43.667952062373      3.553E-14 3.323E-15 0.000E+00
 ETOT  509  -43.667952062373     -7.105E-15 3.487E-15 0.000E+00
 ETOT  510  -43.667952062373      0.000E+00 2.986E-15 0.000E+00
 ETOT  511  -43.667952062373      0.000E+00 3.133E-15 0.000E+00
 ETOT  512  -43.667952062373      7.105E-15 2.683E-15 0.000E+00
 ETOT  513  -43.667952062373     -7.105E-15 2.815E-15 0.000E+00
 ETOT  514  -43.667952062373     -1.421E-14 2.410E-15 0.000E+00
 ETOT  515  -43.667952062373      1.421E-14 2.530E-15 0.000E+00
 ETOT  516  -43.667952062373     -2.842E-14 2.166E-15 0.000E+00
 ETOT  517  -43.667952062373      7.105E-15 2.273E-15 0.000E+00
 ETOT  518  -43.667952062373      2.132E-14 1.946E-15 0.000E+00
 ETOT  519  -43.667952062373     -7.105E-15 2.043E-15 0.000E+00
 ETOT  520  -43.667952062373      7.105E-15 1.749E-15 0.000E+00
 ETOT  521  -43.667952062373      0.000E+00 1.836E-15 0.000E+00
 ETOT  522  -43.667952062373     -7.105E-15 1.571E-15 0.000E+00
 ETOT  523  -43.667952062373     -7.105E-15 1.650E-15 0.000E+00
 ETOT  524  -43.667952062373      0.000E+00 1.412E-15 0.000E+00
 ETOT  525  -43.667952062373      7.105E-15 1.482E-15 0.000E+00
 ETOT  526  -43.667952062373      7.105E-15 1.268E-15 0.000E+00
 ETOT  527  -43.667952062373     -7.105E-15 1.332E-15 0.000E+00
 ETOT  528  -43.667952062373      0.000E+00 1.140E-15 0.000E+00
 ETOT  529  -43.667952062373      1.421E-14 1.197E-15 0.000E+00
 ETOT  530  -43.667952062373      7.105E-15 1.024E-15 0.000E+00
 ETOT  531  -43.667952062373     -1.421E-14 1.076E-15 0.000E+00
 ETOT  532  -43.667952062373     -7.105E-15 9.201E-16 0.000E+00
 ETOT  533  -43.667952062373     -2.132E-14 9.666E-16 0.000E+00
 ETOT  534  -43.667952062373      2.132E-14 8.268E-16 0.000E+00
 ETOT  535  -43.667952062373     -7.105E-15 8.685E-16 0.000E+00
 ETOT  536  -43.667952062373      2.132E-14 7.429E-16 0.000E+00
 ETOT  537  -43.667952062373      0.000E+00 7.805E-16 0.000E+00
 ETOT  538  -43.667952062373      1.421E-14 6.675E-16 0.000E+00
 ETOT  539  -43.667952062373      0.000E+00 7.013E-16 0.000E+00
 ETOT  540  -43.667952062373     -7.105E-15 5.998E-16 0.000E+00
 ETOT  541  -43.667952062373      7.105E-15 6.302E-16 0.000E+00
 ETOT  542  -43.667952062373     -7.105E-15 5.389E-16 0.000E+00
 ETOT  543  -43.667952062373     -7.105E-15 5.663E-16 0.000E+00
 ETOT  544  -43.667952062373      7.105E-15 4.842E-16 0.000E+00
 ETOT  545  -43.667952062373     -7.105E-15 5.089E-16 0.000E+00
 ETOT  546  -43.667952062373      0.000E+00 4.351E-16 0.000E+00
 ETOT  547  -43.667952062373      1.421E-14 4.573E-16 0.000E+00
 ETOT  548  -43.667952062373     -1.421E-14 3.909E-16 0.000E+00
 ETOT  549  -43.667952062373      1.421E-14 4.109E-16 0.000E+00
 ETOT  550  -43.667952062373      0.000E+00 3.513E-16 0.000E+00
 ETOT  551  -43.667952062373      0.000E+00 3.692E-16 0.000E+00
 ETOT  552  -43.667952062373      0.000E+00 3.156E-16 0.000E+00
 ETOT  553  -43.667952062373     -7.105E-15 3.318E-16 0.000E+00
 ETOT  554  -43.667952062373     -5.684E-14 2.836E-16 0.000E+00
 ETOT  555  -43.667952062373      4.974E-14 2.981E-16 0.000E+00
 ETOT  556  -43.667952062373     -1.421E-14 2.548E-16 0.000E+00
 ETOT  557  -43.667952062373      0.000E+00 2.679E-16 0.000E+00
 ETOT  558  -43.667952062373      2.132E-14 2.290E-16 0.000E+00
 ETOT  559  -43.667952062373     -7.105E-15 2.407E-16 0.000E+00
 ETOT  560  -43.667952062373     -7.105E-15 2.057E-16 0.000E+00
 ETOT  561  -43.667952062373      0.000E+00 2.163E-16 0.000E+00
 ETOT  562  -43.667952062373      0.000E+00 1.848E-16 0.000E+00
 ETOT  563  -43.667952062373      1.421E-14 1.944E-16 0.000E+00
 ETOT  564  -43.667952062373     -2.132E-14 1.661E-16 0.000E+00
 ETOT  565  -43.667952062373      7.105E-15 1.747E-16 0.000E+00
 ETOT  566  -43.667952062373      2.132E-14 1.492E-16 0.000E+00
 ETOT  567  -43.667952062373      0.000E+00 1.570E-16 0.000E+00
 ETOT  568  -43.667952062373     -7.105E-15 1.341E-16 0.000E+00
 ETOT  569  -43.667952062373      7.105E-15 1.410E-16 0.000E+00
 ETOT  570  -43.667952062373     -7.105E-15 1.205E-16 0.000E+00
 ETOT  571  -43.667952062373     -1.421E-14 1.267E-16 0.000E+00
 ETOT  572  -43.667952062373      7.105E-15 1.083E-16 0.000E+00
 ETOT  573  -43.667952062373     -7.105E-15 1.139E-16 0.000E+00
 ETOT  574  -43.667952062373     -1.421E-14 9.728E-17 0.000E+00
 ETOT  575  -43.667952062373      1.421E-14 1.023E-16 0.000E+00
 ETOT  576  -43.667952062373     -7.105E-15 8.741E-17 0.000E+00
 ETOT  577  -43.667952062373      7.105E-15 9.196E-17 0.000E+00
 ETOT  578  -43.667952062373     -2.842E-14 7.854E-17 0.000E+00
 ETOT  579  -43.667952062373      2.842E-14 8.263E-17 0.000E+00
 ETOT  580  -43.667952062373      2.842E-14 7.057E-17 0.000E+00
 ETOT  581  -43.667952062373     -2.842E-14 7.425E-17 0.000E+00
 ETOT  582  -43.667952062373      7.105E-15 6.341E-17 0.000E+00
 ETOT  583  -43.667952062373      0.000E+00 6.672E-17 0.000E+00
 ETOT  584  -43.667952062373      0.000E+00 5.697E-17 0.000E+00
 ETOT  585  -43.667952062373      0.000E+00 5.995E-17 0.000E+00
 ETOT  586  -43.667952062373     -2.132E-14 5.119E-17 0.000E+00
 ETOT  587  -43.667952062373      7.105E-15 5.387E-17 0.000E+00
 ETOT  588  -43.667952062373     -7.105E-15 4.600E-17 0.000E+00
 ETOT  589  -43.667952062373      0.000E+00 4.841E-17 0.000E+00
 ETOT  590  -43.667952062373     -1.421E-14 4.133E-17 0.000E+00
 ETOT  591  -43.667952062373      0.000E+00 4.350E-17 0.000E+00
 ETOT  592  -43.667952062373      0.000E+00 3.714E-17 0.000E+00
 ETOT  593  -43.667952062373      0.000E+00 3.909E-17 0.000E+00
 ETOT  594  -43.667952062373      7.105E-15 3.337E-17 0.000E+00
 ETOT  595  -43.667952062373     -1.421E-14 3.512E-17 0.000E+00
 ETOT  596  -43.667952062373      7.105E-15 2.998E-17 0.000E+00
 ETOT  597  -43.667952062373     -7.105E-15 3.156E-17 0.000E+00
 ETOT  598  -43.667952062373      7.105E-15 2.694E-17 0.000E+00
 ETOT  599  -43.667952062373      1.421E-14 2.836E-17 0.000E+00
 ETOT  600  -43.667952062373      0.000E+00 2.421E-17 0.000E+00
 ETOT  601  -43.667952062373     -7.105E-15 2.548E-17 0.000E+00
 ETOT  602  -43.667952062373      7.105E-15 2.175E-17 0.000E+00
 ETOT  603  -43.667952062373      1.421E-14 2.290E-17 0.000E+00
 ETOT  604  -43.667952062373     -2.132E-14 1.954E-17 0.000E+00
 ETOT  605  -43.667952062373      1.421E-14 2.058E-17 0.000E+00
 ETOT  606  -43.667952062373     -7.105E-15 1.756E-17 0.000E+00
 ETOT  607  -43.667952062373      1.421E-14 1.849E-17 0.000E+00
 ETOT  608  -43.667952062373     -2.132E-14 1.578E-17 0.000E+00
 ETOT  609  -43.667952062373     -1.421E-14 1.661E-17 0.000E+00
 ETOT  610  -43.667952062373      3.553E-14 1.418E-17 0.000E+00
 ETOT  611  -43.667952062373      0.000E+00 1.493E-17 0.000E+00
 ETOT  612  -43.667952062373      7.105E-15 1.274E-17 0.000E+00
 ETOT  613  -43.667952062373     -2.842E-14 1.342E-17 0.000E+00
 ETOT  614  -43.667952062373      3.553E-14 1.145E-17 0.000E+00
 ETOT  615  -43.667952062373     -1.421E-14 1.205E-17 0.000E+00
 ETOT  616  -43.667952062373     -3.553E-14 1.028E-17 0.000E+00
 ETOT  617  -43.667952062373      3.553E-14 1.083E-17 0.000E+00
 ETOT  618  -43.667952062373     -1.421E-14 9.241E-18 0.000E+00
 ETOT  619  -43.667952062373     -4.263E-14 9.733E-18 0.000E+00
 ETOT  620  -43.667952062373      2.132E-14 8.304E-18 0.000E+00
 ETOT  621  -43.667952062373      7.105E-15 8.746E-18 0.000E+00
 ETOT  622  -43.667952062373     -7.105E-15 7.461E-18 0.000E+00
 ETOT  623  -43.667952062373      0.000E+00 7.859E-18 0.000E+00
 ETOT  624  -43.667952062373      0.000E+00 6.704E-18 0.000E+00
 ETOT  625  -43.667952062373      0.000E+00 7.062E-18 0.000E+00
 ETOT  626  -43.667952062373      1.421E-14 6.024E-18 0.000E+00
 ETOT  627  -43.667952062373     -2.842E-14 6.345E-18 0.000E+00
 ETOT  628  -43.667952062373      1.421E-14 5.413E-18 0.000E+00
 ETOT  629  -43.667952062373      1.421E-14 5.702E-18 0.000E+00
 ETOT  630  -43.667952062373      1.421E-14 4.863E-18 0.000E+00
 ETOT  631  -43.667952062373     -2.132E-14 5.123E-18 0.000E+00
 ETOT  632  -43.667952062373      2.132E-14 4.370E-18 0.000E+00
 ETOT  633  -43.667952062373     -1.421E-14 4.604E-18 0.000E+00
 ETOT  634  -43.667952062373      2.842E-14 3.927E-18 0.000E+00
 ETOT  635  -43.667952062373     -2.132E-14 4.137E-18 0.000E+00
 ETOT  636  -43.667952062373     -7.105E-15 3.528E-18 0.000E+00
 ETOT  637  -43.667952062373      1.421E-14 3.717E-18 0.000E+00
 ETOT  638  -43.667952062373      2.842E-14 3.170E-18 0.000E+00
 ETOT  639  -43.667952062373     -1.421E-14 3.340E-18 0.000E+00
 ETOT  640  -43.667952062373     -1.421E-14 2.849E-18 0.000E+00
 ETOT  641  -43.667952062373     -2.132E-14 3.001E-18 0.000E+00
 ETOT  642  -43.667952062373      4.263E-14 2.559E-18 0.000E+00
 ETOT  643  -43.667952062373     -1.421E-14 2.697E-18 0.000E+00
 ETOT  644  -43.667952062373      2.132E-14 2.300E-18 0.000E+00
 ETOT  645  -43.667952062373      0.000E+00 2.423E-18 0.000E+00
 ETOT  646  -43.667952062373      2.132E-14 2.066E-18 0.000E+00
 ETOT  647  -43.667952062373     -3.553E-14 2.178E-18 0.000E+00
 ETOT  648  -43.667952062373     -2.132E-14 1.857E-18 0.000E+00
 ETOT  649  -43.667952062373      7.105E-15 1.957E-18 0.000E+00
 ETOT  650  -43.667952062373     -7.105E-15 1.668E-18 0.000E+00
 ETOT  651  -43.667952062373      1.421E-14 1.758E-18 0.000E+00
 ETOT  652  -43.667952062373      2.132E-14 1.499E-18 0.000E+00
 ETOT  653  -43.667952062373     -1.421E-14 1.580E-18 0.000E+00
 ETOT  654  -43.667952062373      0.000E+00 1.347E-18 0.000E+00
 ETOT  655  -43.667952062373     -7.105E-15 1.420E-18 0.000E+00
 ETOT  656  -43.667952062373     -7.105E-15 1.210E-18 0.000E+00
 ETOT  657  -43.667952062373     -7.105E-15 1.276E-18 0.000E+00
 ETOT  658  -43.667952062373     -7.105E-15 1.087E-18 0.000E+00
 ETOT  659  -43.667952062373      0.000E+00 1.146E-18 0.000E+00
 ETOT  660  -43.667952062373      0.000E+00 9.771E-19 0.000E+00
 ETOT  661  -43.667952062373      7.105E-15 1.030E-18 0.000E+00
 ETOT  662  -43.667952062373      0.000E+00 8.780E-19 0.000E+00
 ETOT  663  -43.667952062373     -7.105E-15 9.255E-19 0.000E+00
 ETOT  664  -43.667952062373      0.000E+00 7.889E-19 0.000E+00
 ETOT  665  -43.667952062373      7.105E-15 8.316E-19 0.000E+00
 ETOT  666  -43.667952062373     -7.105E-15 7.089E-19 0.000E+00
 ETOT  667  -43.667952062373      2.842E-14 7.473E-19 0.000E+00
 ETOT  668  -43.667952062373      7.105E-15 6.369E-19 0.000E+00
 ETOT  669  -43.667952062373     -7.105E-15 6.715E-19 0.000E+00
 ETOT  670  -43.667952062373     -2.842E-14 5.723E-19 0.000E+00
 ETOT  671  -43.667952062373      7.105E-15 6.033E-19 0.000E+00
 ETOT  672  -43.667952062373      0.000E+00 5.142E-19 0.000E+00
 ETOT  673  -43.667952062373     -7.105E-15 5.421E-19 0.000E+00
 ETOT  674  -43.667952062373      2.842E-14 4.621E-19 0.000E+00
 ETOT  675  -43.667952062373      1.421E-14 4.872E-19 0.000E+00
 ETOT  676  -43.667952062373     -1.421E-14 4.152E-19 0.000E+00
 ETOT  677  -43.667952062373      1.421E-14 4.378E-19 0.000E+00
 ETOT  678  -43.667952062373     -1.421E-14 3.730E-19 0.000E+00
 ETOT  679  -43.667952062373      0.000E+00 3.933E-19 0.000E+00
 ETOT  680  -43.667952062373      0.000E+00 3.352E-19 0.000E+00
 ETOT  681  -43.667952062373      0.000E+00 3.535E-19 0.000E+00
 ETOT  682  -43.667952062373      1.421E-14 3.012E-19 0.000E+00
 ETOT  683  -43.667952062373     -1.421E-14 3.176E-19 0.000E+00
 ETOT  684  -43.667952062373     -1.421E-14 2.706E-19 0.000E+00
 ETOT  685  -43.667952062373      0.000E+00 2.854E-19 0.000E+00
 ETOT  686  -43.667952062373     -7.105E-15 2.431E-19 0.000E+00
 ETOT  687  -43.667952062373      7.105E-15 2.565E-19 0.000E+00
 ETOT  688  -43.667952062373     -7.105E-15 2.185E-19 0.000E+00
 ETOT  689  -43.667952062373      2.132E-14 2.304E-19 0.000E+00
 ETOT  690  -43.667952062373     -2.842E-14 1.963E-19 0.000E+00
 ETOT  691  -43.667952062373      4.974E-14 2.071E-19 0.000E+00
 ETOT  692  -43.667952062373      0.000E+00 1.764E-19 0.000E+00
 ETOT  693  -43.667952062373     -2.842E-14 1.861E-19 0.000E+00
 ETOT  694  -43.667952062373      7.105E-15 1.585E-19 0.000E+00
 ETOT  695  -43.667952062373      1.421E-14 1.672E-19 0.000E+00
 ETOT  696  -43.667952062373     -1.421E-14 1.424E-19 0.000E+00
 ETOT  697  -43.667952062373      7.105E-15 1.502E-19 0.000E+00
 ETOT  698  -43.667952062373     -7.105E-15 1.280E-19 0.000E+00
 ETOT  699  -43.667952062373     -7.105E-15 1.350E-19 0.000E+00
 ETOT  700  -43.667952062373      0.000E+00 1.150E-19 0.000E+00
 ETOT  701  -43.667952062373      2.842E-14 1.213E-19 0.000E+00
 ETOT  702  -43.667952062373     -7.105E-15 1.033E-19 0.000E+00
 ETOT  703  -43.667952062373      7.105E-15 1.090E-19 0.000E+00
 ETOT  704  -43.667952062373     -7.105E-15 9.283E-20 0.000E+00
 ETOT  705  -43.667952062373     -1.421E-14 9.792E-20 0.000E+00
 ETOT  706  -43.667952062373     -7.105E-15 8.341E-20 0.000E+00
 ETOT  707  -43.667952062373      2.842E-14 8.800E-20 0.000E+00
 ETOT  708  -43.667952062373     -4.974E-14 7.495E-20 0.000E+00
 ETOT  709  -43.667952062373      2.132E-14 7.907E-20 0.000E+00
 ETOT  710  -43.667952062373     -7.105E-15 6.734E-20 0.000E+00
 ETOT  711  -43.667952062373      2.132E-14 7.106E-20 0.000E+00
 ETOT  712  -43.667952062373      0.000E+00 6.051E-20 0.000E+00
 ETOT  713  -43.667952062373      0.000E+00 6.385E-20 0.000E+00
 ETOT  714  -43.667952062373     -1.421E-14 5.437E-20 0.000E+00
 ETOT  715  -43.667952062373      7.105E-15 5.737E-20 0.000E+00
 ETOT  716  -43.667952062373      7.105E-15 4.885E-20 0.000E+00
 ETOT  717  -43.667952062373     -7.105E-15 5.155E-20 0.000E+00
 ETOT  718  -43.667952062373      0.000E+00 4.390E-20 0.000E+00
 ETOT  719  -43.667952062373      0.000E+00 4.632E-20 0.000E+00
 ETOT  720  -43.667952062373      7.105E-15 3.944E-20 0.000E+00
 ETOT  721  -43.667952062373     -1.421E-14 4.162E-20 0.000E+00
 ETOT  722  -43.667952062373      0.000E+00 3.544E-20 0.000E+00
 ETOT  723  -43.667952062373      0.000E+00 3.740E-20 0.000E+00
 ETOT  724  -43.667952062373      0.000E+00 3.184E-20 0.000E+00
 ETOT  725  -43.667952062373     -7.105E-15 3.361E-20 0.000E+00
 ETOT  726  -43.667952062373      1.421E-14 2.861E-20 0.000E+00
 ETOT  727  -43.667952062373     -2.132E-14 3.020E-20 0.000E+00
 ETOT  728  -43.667952062373      7.105E-15 2.571E-20 0.000E+00
 ETOT  729  -43.667952062373      2.132E-14 2.714E-20 0.000E+00
 ETOT  730  -43.667952062373     -1.421E-14 2.310E-20 0.000E+00
 ETOT  731  -43.667952062373      0.000E+00 2.438E-20 0.000E+00
 ETOT  732  -43.667952062373     -7.105E-15 2.075E-20 0.000E+00
 ETOT  733  -43.667952062373      7.105E-15 2.191E-20 0.000E+00
 ETOT  734  -43.667952062373      0.000E+00 1.865E-20 0.000E+00
 ETOT  735  -43.667952062373     -1.421E-14 1.969E-20 0.000E+00
 ETOT  736  -43.667952062373      1.421E-14 1.675E-20 0.000E+00
 ETOT  737  -43.667952062373     -2.132E-14 1.769E-20 0.000E+00
 ETOT  738  -43.667952062373      7.105E-15 1.506E-20 0.000E+00
 ETOT  739  -43.667952062373     -7.105E-15 1.589E-20 0.000E+00
 ETOT  740  -43.667952062373      2.132E-14 1.353E-20 0.000E+00
 ETOT  741  -43.667952062373      0.000E+00 1.428E-20 0.000E+00
 ETOT  742  -43.667952062373     -2.132E-14 1.216E-20 0.000E+00
 ETOT  743  -43.667952062373      2.842E-14 1.283E-20 0.000E+00
 ETOT  744  -43.667952062373      0.000E+00 1.093E-20 0.000E+00
 ETOT  745  -43.667952062373     -1.421E-14 1.153E-20 0.000E+00
 ETOT  746  -43.667952062373      1.421E-14 9.919E-21 0.000E+00
 
 At SCF step  746   max residual=  9.92E-21 < tolwfr=  1.00E-20 =>converged.
================================================================================
 
 ----iterations are completed or convergence reached----
 
 dfpt_looppert: DFPT cycle converged with prtwf=-1. Will skip output of the 1st-order WFK file.
 dfpt_looppert : ek2=    7.7437249172E+01
          f-sum rule ratio=    1.0539820213E+00
 prteigrs : about to open file /scratch/users/j/a/jabreu/flow_simple_remain_atoms/flow/w285/t1/tmpdata/tmp_1WF1_EIG
 Expectation of eigenvalue derivatives (hartree) for nkpt=   2  k points:
  (in case of degenerate eigenvalues, averaged derivative)
 kpt#   1, nband= 29, wtk=  0.50000, kpt=  0.2525  0.2525  0.5000 (reduced coord)
   0.00989    0.00756   -0.01906   -0.05331   -0.06637   -0.05715    0.04755    0.00974
   0.01855    0.02554    0.00803   -0.01103    0.01796    0.07115    0.04246    0.02634
   0.02903    0.09528   -0.02821    0.00127   -0.07464    0.02098    0.01943   -0.03484
  -0.00194    0.00844   -0.01654   -0.02032    0.00010
 prteigrs : prtvol=0 or 1, do not print more k-points.
 
 
 Eight components of 2nd-order total energy (hartree) are
 1,2,3: 0th-order hamiltonian combined with 1st-order wavefunctions
     kin0=   1.19068131E+02 eigvalue=  -4.97552981E+00  local=  -6.14075462E+01
 4,5,6: 1st-order hamiltonian combined with 1st and 0th-order wfs
     kin1=  -8.16174684E+01  Hartree=   0.00000000E+00     xc=   0.00000000E+00
 7,8,9: eventually, occupation + non-local contributions
    edocc=   4.72148431E+00     enl0=  -1.37385875E+01   enl1=  -5.71843572E+00
 1-9 gives the relaxation energy (to be shifted if some occ is /=2.0)
   erelax=  -4.36679521E+01
  No Ewald or frozen-wf contrib.: the relaxation energy is the total one
 2DEtotal=   -0.4366795206E+02 Ha. Also 2DEtotal=   -0.118826540595E+04 eV
    (  non-var. 2DEtotal :   -4.3667952062E+01 Ha)
 
--------------------------------------------------------------------------------
 Perturbation wavevector (in red.coord.)   0.000000  0.000000  0.000000
 Perturbation : derivative vs k along direction   2
 The set of symmetries contains only one element for this perturbation.
 symkpt : not enough symmetry to change the number of k points.
 
--------------------------------------------------------------------------------
 
--------------------------------------------------------------------------------
 
 Initialisation of the first-order wave-functions :
  ireadwf=   0

--- !BeginCycle
iteration_state: {dtset: 1, }
solver: {iscf: 7, nstep: 2000, nline: 4, wfoptalg: 0, }
tolerances: {tolwfr: 1.00E-20, }
...
 
     iter   2DEtotal(Ha)        deltaE(Ha) residm    vres2
-ETOT  1  -43.263902265290     -4.326E+01 9.617E-02 0.000E+00
 ETOT  2  -43.598069077475     -3.342E-01 4.695E-02 0.000E+00
 ETOT  3  -43.648655478254     -5.059E-02 1.388E-02 0.000E+00
 ETOT  4  -43.661912808279     -1.326E-02 1.421E-02 0.000E+00
 ETOT  5  -43.665978434831     -4.066E-03 4.871E-03 0.000E+00
 ETOT  6  -43.667290017389     -1.312E-03 5.323E-03 0.000E+00
 ETOT  7  -43.667723293943     -4.333E-04 2.567E-03 0.000E+00
 ETOT  8  -43.667868974314     -1.457E-04 2.525E-03 0.000E+00
 ETOT  9  -43.667918505665     -4.953E-05 1.583E-03 0.000E+00
 ETOT 10  -43.667935505498     -1.700E-05 1.434E-03 0.000E+00
 ETOT 11  -43.667941383306     -5.878E-06 1.073E-03 0.000E+00
 ETOT 12  -43.667943429241     -2.046E-06 1.025E-03 0.000E+00
 ETOT 13  -43.667944145647     -7.164E-07 9.143E-04 0.000E+00
 ETOT 14  -43.667944397914     -2.523E-07 8.230E-04 0.000E+00
 ETOT 15  -43.667944487215     -8.930E-08 8.009E-04 0.000E+00
 ETOT 16  -43.667944518987     -3.177E-08 7.233E-04 0.000E+00
 ETOT 17  -43.667944530346     -1.136E-08 7.036E-04 0.000E+00
 ETOT 18  -43.667944534427     -4.081E-09 6.364E-04 0.000E+00
 ETOT 19  -43.667944535900     -1.473E-09 6.192E-04 0.000E+00
 ETOT 20  -43.667944536433     -5.337E-10 5.605E-04 0.000E+00
 ETOT 21  -43.667944536628     -1.944E-10 5.458E-04 0.000E+00
 ETOT 22  -43.667944536699     -7.105E-11 4.941E-04 0.000E+00
 ETOT 23  -43.667944536725     -2.616E-11 4.818E-04 0.000E+00
 ETOT 24  -43.667944536734     -9.500E-12 4.361E-04 0.000E+00
 ETOT 25  -43.667944536738     -3.531E-12 4.259E-04 0.000E+00
 ETOT 26  -43.667944536739     -1.386E-12 3.853E-04 0.000E+00
 ETOT 27  -43.667944536740     -5.258E-13 3.770E-04 0.000E+00
 ETOT 28  -43.667944536740     -2.345E-13 3.408E-04 0.000E+00
 ETOT 29  -43.667944536740      3.553E-14 3.342E-04 0.000E+00
 ETOT 30  -43.667944536740     -7.816E-14 3.017E-04 0.000E+00
 ETOT 31  -43.667944536740     -7.816E-14 2.966E-04 0.000E+00
 ETOT 32  -43.667944536740      1.847E-13 2.675E-04 0.000E+00
 ETOT 33  -43.667944536740     -3.553E-14 2.636E-04 0.000E+00
 ETOT 34  -43.667944536740     -3.553E-14 2.374E-04 0.000E+00
 ETOT 35  -43.667944536740      7.105E-14 2.345E-04 0.000E+00
 ETOT 36  -43.667944536740     -2.842E-14 2.110E-04 0.000E+00
 ETOT 37  -43.667944536740     -4.974E-14 2.088E-04 0.000E+00
 ETOT 38  -43.667944536740      2.132E-14 1.876E-04 0.000E+00
 ETOT 39  -43.667944536740     -4.263E-14 1.861E-04 0.000E+00
 ETOT 40  -43.667944536740      3.553E-14 1.670E-04 0.000E+00
 ETOT 41  -43.667944536740      0.000E+00 1.660E-04 0.000E+00
 ETOT 42  -43.667944536740      1.421E-14 1.488E-04 0.000E+00
 ETOT 43  -43.667944536740     -2.842E-14 1.482E-04 0.000E+00
 ETOT 44  -43.667944536740      2.842E-14 1.327E-04 0.000E+00
 ETOT 45  -43.667944536740     -1.421E-14 1.324E-04 0.000E+00
 ETOT 46  -43.667944536740      1.421E-14 1.184E-04 0.000E+00
 ETOT 47  -43.667944536740     -1.421E-14 1.183E-04 0.000E+00
 ETOT 48  -43.667944536740      0.000E+00 1.057E-04 0.000E+00
 ETOT 49  -43.667944536740      1.421E-14 1.058E-04 0.000E+00
 ETOT 50  -43.667944536740     -7.105E-15 9.445E-05 0.000E+00
 ETOT 51  -43.667944536740      1.421E-14 9.465E-05 0.000E+00
 ETOT 52  -43.667944536740     -2.132E-14 8.443E-05 0.000E+00
 ETOT 53  -43.667944536740      2.842E-14 8.472E-05 0.000E+00
 ETOT 54  -43.667944536740      7.105E-15 7.551E-05 0.000E+00
 ETOT 55  -43.667944536740     -2.842E-14 7.585E-05 0.000E+00
 ETOT 56  -43.667944536740      2.842E-14 6.756E-05 0.000E+00
 ETOT 57  -43.667944536740     -4.263E-14 6.794E-05 0.000E+00
 ETOT 58  -43.667944536740      1.421E-14 6.047E-05 0.000E+00
 ETOT 59  -43.667944536740     -2.842E-14 6.087E-05 0.000E+00
 ETOT 60  -43.667944536740     -7.105E-15 5.414E-05 0.000E+00
 ETOT 61  -43.667944536740      2.132E-14 5.455E-05 0.000E+00
 ETOT 62  -43.667944536740      0.000E+00 4.849E-05 0.000E+00
 ETOT 63  -43.667944536740     -7.105E-15 4.890E-05 0.000E+00
 ETOT 64  -43.667944536740      7.105E-15 4.345E-05 0.000E+00
 ETOT 65  -43.667944536740     -7.105E-15 4.385E-05 0.000E+00
 ETOT 66  -43.667944536740      7.105E-15 3.894E-05 0.000E+00
 ETOT 67  -43.667944536740      0.000E+00 3.932E-05 0.000E+00
 ETOT 68  -43.667944536740     -7.105E-15 3.490E-05 0.000E+00
 ETOT 69  -43.667944536740      7.105E-15 3.527E-05 0.000E+00
 ETOT 70  -43.667944536740      0.000E+00 3.129E-05 0.000E+00
 ETOT 71  -43.667944536740     -1.421E-14 3.164E-05 0.000E+00
 ETOT 72  -43.667944536740      0.000E+00 2.806E-05 0.000E+00
 ETOT 73  -43.667944536740      0.000E+00 2.839E-05 0.000E+00
 ETOT 74  -43.667944536740      1.421E-14 2.517E-05 0.000E+00
 ETOT 75  -43.667944536740     -7.105E-15 2.548E-05 0.000E+00
 ETOT 76  -43.667944536740     -7.105E-15 2.258E-05 0.000E+00
 ETOT 77  -43.667944536740      0.000E+00 2.287E-05 0.000E+00
 ETOT 78  -43.667944536740      1.421E-14 2.026E-05 0.000E+00
 ETOT 79  -43.667944536740     -1.421E-14 2.053E-05 0.000E+00
 ETOT 80  -43.667944536740      0.000E+00 1.818E-05 0.000E+00
 ETOT 81  -43.667944536740      0.000E+00 1.843E-05 0.000E+00
 ETOT 82  -43.667944536740      1.421E-14 1.631E-05 0.000E+00
 ETOT 83  -43.667944536740      0.000E+00 1.655E-05 0.000E+00
 ETOT 84  -43.667944536740     -2.132E-14 1.464E-05 0.000E+00
 ETOT 85  -43.667944536740      7.105E-15 1.486E-05 0.000E+00
 ETOT 86  -43.667944536740     -2.132E-14 1.314E-05 0.000E+00
 ETOT 87  -43.667944536740      3.553E-14 1.334E-05 0.000E+00
 ETOT 88  -43.667944536740     -2.132E-14 1.180E-05 0.000E+00
 ETOT 89  -43.667944536740      1.421E-14 1.198E-05 0.000E+00
 ETOT 90  -43.667944536740     -2.842E-14 1.059E-05 0.000E+00
 ETOT 91  -43.667944536740      2.842E-14 1.076E-05 0.000E+00
 ETOT 92  -43.667944536740     -1.421E-14 9.510E-06 0.000E+00
 ETOT 93  -43.667944536740      2.842E-14 9.666E-06 0.000E+00
 ETOT 94  -43.667944536740      2.132E-14 8.539E-06 0.000E+00
 ETOT 95  -43.667944536740     -3.553E-14 8.683E-06 0.000E+00
 ETOT 96  -43.667944536740     -1.421E-14 7.668E-06 0.000E+00
 ETOT 97  -43.667944536740      2.132E-14 7.800E-06 0.000E+00
 ETOT 98  -43.667944536740     -2.132E-14 6.886E-06 0.000E+00
 ETOT 99  -43.667944536740      7.105E-15 7.007E-06 0.000E+00
 ETOT  100  -43.667944536740     -1.421E-14 6.184E-06 0.000E+00
 ETOT  101  -43.667944536740      7.105E-15 6.296E-06 0.000E+00
 ETOT  102  -43.667944536740      1.421E-14 5.554E-06 0.000E+00
 ETOT  103  -43.667944536740     -2.842E-14 5.656E-06 0.000E+00
 ETOT  104  -43.667944536740      4.263E-14 4.988E-06 0.000E+00
 ETOT  105  -43.667944536740      0.000E+00 5.082E-06 0.000E+00
 ETOT  106  -43.667944536740      1.421E-14 4.480E-06 0.000E+00
 ETOT  107  -43.667944536740      0.000E+00 4.567E-06 0.000E+00
 ETOT  108  -43.667944536740      7.105E-15 4.024E-06 0.000E+00
 ETOT  109  -43.667944536740     -2.132E-14 4.104E-06 0.000E+00
 ETOT  110  -43.667944536740     -7.105E-15 3.615E-06 0.000E+00
 ETOT  111  -43.667944536740      1.421E-14 3.688E-06 0.000E+00
 ETOT  112  -43.667944536740     -1.421E-14 3.247E-06 0.000E+00
 ETOT  113  -43.667944536740      1.421E-14 3.314E-06 0.000E+00
 ETOT  114  -43.667944536740     -1.421E-14 2.917E-06 0.000E+00
 ETOT  115  -43.667944536740      2.842E-14 2.978E-06 0.000E+00
 ETOT  116  -43.667944536740      0.000E+00 2.620E-06 0.000E+00
 ETOT  117  -43.667944536740     -7.105E-15 2.676E-06 0.000E+00
 ETOT  118  -43.667944536740      2.132E-14 2.354E-06 0.000E+00
 ETOT  119  -43.667944536740     -2.842E-14 2.405E-06 0.000E+00
 ETOT  120  -43.667944536740      7.105E-15 2.115E-06 0.000E+00
 ETOT  121  -43.667944536740     -7.105E-15 2.162E-06 0.000E+00
 ETOT  122  -43.667944536740      0.000E+00 1.900E-06 0.000E+00
 ETOT  123  -43.667944536740      7.105E-15 1.943E-06 0.000E+00
 ETOT  124  -43.667944536740      1.421E-14 1.707E-06 0.000E+00
 ETOT  125  -43.667944536740     -2.842E-14 1.746E-06 0.000E+00
 ETOT  126  -43.667944536740      1.421E-14 1.533E-06 0.000E+00
 ETOT  127  -43.667944536740     -7.105E-15 1.569E-06 0.000E+00
 ETOT  128  -43.667944536740      0.000E+00 1.378E-06 0.000E+00
 ETOT  129  -43.667944536740      3.553E-14 1.411E-06 0.000E+00
 ETOT  130  -43.667944536740      0.000E+00 1.238E-06 0.000E+00
 ETOT  131  -43.667944536740     -2.132E-14 1.268E-06 0.000E+00
 ETOT  132  -43.667944536740     -7.105E-15 1.112E-06 0.000E+00
 ETOT  133  -43.667944536740     -7.105E-15 1.140E-06 0.000E+00
 ETOT  134  -43.667944536740      7.105E-15 9.992E-07 0.000E+00
 ETOT  135  -43.667944536740      0.000E+00 1.024E-06 0.000E+00
 ETOT  136  -43.667944536740      0.000E+00 8.977E-07 0.000E+00
 ETOT  137  -43.667944536740     -1.421E-14 9.208E-07 0.000E+00
 ETOT  138  -43.667944536740      7.105E-15 8.066E-07 0.000E+00
 ETOT  139  -43.667944536740      1.421E-14 8.277E-07 0.000E+00
 ETOT  140  -43.667944536740      0.000E+00 7.247E-07 0.000E+00
 ETOT  141  -43.667944536740     -1.421E-14 7.440E-07 0.000E+00
 ETOT  142  -43.667944536740      1.421E-14 6.512E-07 0.000E+00
 ETOT  143  -43.667944536740     -2.842E-14 6.688E-07 0.000E+00
 ETOT  144  -43.667944536740     -7.105E-15 5.851E-07 0.000E+00
 ETOT  145  -43.667944536740      2.132E-14 6.012E-07 0.000E+00
 ETOT  146  -43.667944536740      0.000E+00 5.257E-07 0.000E+00
 ETOT  147  -43.667944536740      1.421E-14 5.405E-07 0.000E+00
 ETOT  148  -43.667944536740      0.000E+00 4.724E-07 0.000E+00
 ETOT  149  -43.667944536740      0.000E+00 4.858E-07 0.000E+00
 ETOT  150  -43.667944536740      7.105E-15 4.244E-07 0.000E+00
 ETOT  151  -43.667944536740     -2.132E-14 4.367E-07 0.000E+00
 ETOT  152  -43.667944536740      1.421E-14 3.814E-07 0.000E+00
 ETOT  153  -43.667944536740      0.000E+00 3.926E-07 0.000E+00
 ETOT  154  -43.667944536740      0.000E+00 3.427E-07 0.000E+00
 ETOT  155  -43.667944536740     -1.421E-14 3.529E-07 0.000E+00
 ETOT  156  -43.667944536740      1.421E-14 3.079E-07 0.000E+00
 ETOT  157  -43.667944536740      1.421E-14 3.173E-07 0.000E+00
 ETOT  158  -43.667944536740      0.000E+00 2.767E-07 0.000E+00
 ETOT  159  -43.667944536740     -1.421E-14 2.852E-07 0.000E+00
 ETOT  160  -43.667944536740      0.000E+00 2.486E-07 0.000E+00
 ETOT  161  -43.667944536740     -2.842E-14 2.564E-07 0.000E+00
 ETOT  162  -43.667944536740      2.842E-14 2.234E-07 0.000E+00
 ETOT  163  -43.667944536740     -2.842E-14 2.305E-07 0.000E+00
 ETOT  164  -43.667944536740      0.000E+00 2.007E-07 0.000E+00
 ETOT  165  -43.667944536740     -1.421E-14 2.072E-07 0.000E+00
 ETOT  166  -43.667944536740      1.421E-14 1.804E-07 0.000E+00
 ETOT  167  -43.667944536740     -1.421E-14 1.863E-07 0.000E+00
 ETOT  168  -43.667944536740      2.132E-14 1.621E-07 0.000E+00
 ETOT  169  -43.667944536740     -7.105E-15 1.675E-07 0.000E+00
 ETOT  170  -43.667944536740      1.421E-14 1.456E-07 0.000E+00
 ETOT  171  -43.667944536740     -1.421E-14 1.505E-07 0.000E+00
 ETOT  172  -43.667944536740      0.000E+00 1.309E-07 0.000E+00
 ETOT  173  -43.667944536740      0.000E+00 1.353E-07 0.000E+00
 ETOT  174  -43.667944536740      1.421E-14 1.176E-07 0.000E+00
 ETOT  175  -43.667944536740      0.000E+00 1.217E-07 0.000E+00
 ETOT  176  -43.667944536740     -7.105E-15 1.057E-07 0.000E+00
 ETOT  177  -43.667944536740     -7.105E-15 1.094E-07 0.000E+00
 ETOT  178  -43.667944536740      7.105E-15 9.495E-08 0.000E+00
 ETOT  179  -43.667944536740      7.105E-15 9.833E-08 0.000E+00
 ETOT  180  -43.667944536740     -7.105E-15 8.532E-08 0.000E+00
 ETOT  181  -43.667944536740      7.105E-15 8.840E-08 0.000E+00
 ETOT  182  -43.667944536740      0.000E+00 7.667E-08 0.000E+00
 ETOT  183  -43.667944536740     -1.421E-14 7.947E-08 0.000E+00
 ETOT  184  -43.667944536740      0.000E+00 6.890E-08 0.000E+00
 ETOT  185  -43.667944536740      0.000E+00 7.144E-08 0.000E+00
 ETOT  186  -43.667944536740     -1.421E-14 6.191E-08 0.000E+00
 ETOT  187  -43.667944536740      7.105E-15 6.423E-08 0.000E+00
 ETOT  188  -43.667944536740      7.105E-15 5.563E-08 0.000E+00
 ETOT  189  -43.667944536740     -1.421E-14 5.774E-08 0.000E+00
 ETOT  190  -43.667944536740     -7.105E-15 4.999E-08 0.000E+00
 ETOT  191  -43.667944536740      7.105E-15 5.191E-08 0.000E+00
 ETOT  192  -43.667944536740     -7.105E-15 4.492E-08 0.000E+00
 ETOT  193  -43.667944536740      7.105E-15 4.666E-08 0.000E+00
 ETOT  194  -43.667944536740      0.000E+00 4.037E-08 0.000E+00
 ETOT  195  -43.667944536740     -1.421E-14 4.195E-08 0.000E+00
 ETOT  196  -43.667944536740      0.000E+00 3.628E-08 0.000E+00
 ETOT  197  -43.667944536740      0.000E+00 3.771E-08 0.000E+00
 ETOT  198  -43.667944536740      0.000E+00 3.260E-08 0.000E+00
 ETOT  199  -43.667944536740      1.421E-14 3.391E-08 0.000E+00
 ETOT  200  -43.667944536740      1.421E-14 2.929E-08 0.000E+00
 ETOT  201  -43.667944536740     -1.421E-14 3.048E-08 0.000E+00
 ETOT  202  -43.667944536740      7.105E-15 2.632E-08 0.000E+00
 ETOT  203  -43.667944536740      7.105E-15 2.740E-08 0.000E+00
 ETOT  204  -43.667944536740      2.132E-14 2.365E-08 0.000E+00
 ETOT  205  -43.667944536740     -3.553E-14 2.463E-08 0.000E+00
 ETOT  206  -43.667944536740      1.421E-14 2.126E-08 0.000E+00
 ETOT  207  -43.667944536740     -1.421E-14 2.215E-08 0.000E+00
 ETOT  208  -43.667944536740      1.421E-14 1.910E-08 0.000E+00
 ETOT  209  -43.667944536740     -7.105E-15 1.991E-08 0.000E+00
 ETOT  210  -43.667944536740     -7.105E-15 1.717E-08 0.000E+00
 ETOT  211  -43.667944536740      7.105E-15 1.790E-08 0.000E+00
 ETOT  212  -43.667944536740     -7.105E-15 1.543E-08 0.000E+00
 ETOT  213  -43.667944536740      1.421E-14 1.609E-08 0.000E+00
 ETOT  214  -43.667944536740      0.000E+00 1.386E-08 0.000E+00
 ETOT  215  -43.667944536740     -1.421E-14 1.447E-08 0.000E+00
 ETOT  216  -43.667944536740      0.000E+00 1.246E-08 0.000E+00
 ETOT  217  -43.667944536740      0.000E+00 1.300E-08 0.000E+00
 ETOT  218  -43.667944536740      0.000E+00 1.119E-08 0.000E+00
 ETOT  219  -43.667944536740      0.000E+00 1.169E-08 0.000E+00
 ETOT  220  -43.667944536740     -1.421E-14 1.006E-08 0.000E+00
 ETOT  221  -43.667944536740      0.000E+00 1.051E-08 0.000E+00
 ETOT  222  -43.667944536740      7.105E-15 9.039E-09 0.000E+00
 ETOT  223  -43.667944536740     -7.105E-15 9.448E-09 0.000E+00
 ETOT  224  -43.667944536740      2.132E-14 8.123E-09 0.000E+00
 ETOT  225  -43.667944536740     -7.105E-15 8.494E-09 0.000E+00
 ETOT  226  -43.667944536740      1.421E-14 7.300E-09 0.000E+00
 ETOT  227  -43.667944536740     -1.421E-14 7.636E-09 0.000E+00
 ETOT  228  -43.667944536740     -7.105E-15 6.560E-09 0.000E+00
 ETOT  229  -43.667944536740      2.132E-14 6.865E-09 0.000E+00
 ETOT  230  -43.667944536740      2.132E-14 5.895E-09 0.000E+00
 ETOT  231  -43.667944536740     -2.132E-14 6.171E-09 0.000E+00
 ETOT  232  -43.667944536740     -1.421E-14 5.298E-09 0.000E+00
 ETOT  233  -43.667944536740     -1.421E-14 5.548E-09 0.000E+00
 ETOT  234  -43.667944536740      1.421E-14 4.761E-09 0.000E+00
 ETOT  235  -43.667944536740     -1.421E-14 4.987E-09 0.000E+00
 ETOT  236  -43.667944536740      2.132E-14 4.278E-09 0.000E+00
 ETOT  237  -43.667944536740     -7.105E-15 4.484E-09 0.000E+00
 ETOT  238  -43.667944536740      0.000E+00 3.845E-09 0.000E+00
 ETOT  239  -43.667944536740     -2.842E-14 4.031E-09 0.000E+00
 ETOT  240  -43.667944536740      2.842E-14 3.455E-09 0.000E+00
 ETOT  241  -43.667944536740      0.000E+00 3.623E-09 0.000E+00
 ETOT  242  -43.667944536740      1.421E-14 3.105E-09 0.000E+00
 ETOT  243  -43.667944536740      0.000E+00 3.257E-09 0.000E+00
 ETOT  244  -43.667944536740     -7.105E-15 2.790E-09 0.000E+00
 ETOT  245  -43.667944536740     -2.132E-14 2.928E-09 0.000E+00
 ETOT  246  -43.667944536740      2.842E-14 2.507E-09 0.000E+00
 ETOT  247  -43.667944536740     -2.842E-14 2.632E-09 0.000E+00
 ETOT  248  -43.667944536740      0.000E+00 2.253E-09 0.000E+00
 ETOT  249  -43.667944536740      0.000E+00 2.366E-09 0.000E+00
 ETOT  250  -43.667944536740      0.000E+00 2.025E-09 0.000E+00
 ETOT  251  -43.667944536740      7.105E-15 2.127E-09 0.000E+00
 ETOT  252  -43.667944536740      7.105E-15 1.820E-09 0.000E+00
 ETOT  253  -43.667944536740      1.421E-14 1.912E-09 0.000E+00
 ETOT  254  -43.667944536740     -7.105E-15 1.635E-09 0.000E+00
 ETOT  255  -43.667944536740      7.105E-15 1.719E-09 0.000E+00
 ETOT  256  -43.667944536740     -2.132E-14 1.470E-09 0.000E+00
 ETOT  257  -43.667944536740      0.000E+00 1.546E-09 0.000E+00
 ETOT  258  -43.667944536740      2.842E-14 1.321E-09 0.000E+00
 ETOT  259  -43.667944536740      0.000E+00 1.389E-09 0.000E+00
 ETOT  260  -43.667944536740      7.105E-15 1.187E-09 0.000E+00
 ETOT  261  -43.667944536740     -2.132E-14 1.249E-09 0.000E+00
 ETOT  262  -43.667944536740      1.421E-14 1.067E-09 0.000E+00
 ETOT  263  -43.667944536740      0.000E+00 1.123E-09 0.000E+00
 ETOT  264  -43.667944536740      0.000E+00 9.585E-10 0.000E+00
 ETOT  265  -43.667944536740     -7.105E-15 1.009E-09 0.000E+00
 ETOT  266  -43.667944536740      7.105E-15 8.614E-10 0.000E+00
 ETOT  267  -43.667944536740     -1.421E-14 9.073E-10 0.000E+00
 ETOT  268  -43.667944536740      7.105E-15 7.741E-10 0.000E+00
 ETOT  269  -43.667944536740     -7.105E-15 8.157E-10 0.000E+00
 ETOT  270  -43.667944536740      7.105E-15 6.956E-10 0.000E+00
 ETOT  271  -43.667944536740      7.105E-15 7.332E-10 0.000E+00
 ETOT  272  -43.667944536740      0.000E+00 6.252E-10 0.000E+00
 ETOT  273  -43.667944536740      0.000E+00 6.591E-10 0.000E+00
 ETOT  274  -43.667944536740     -1.421E-14 5.618E-10 0.000E+00
 ETOT  275  -43.667944536740      1.421E-14 5.925E-10 0.000E+00
 ETOT  276  -43.667944536740     -1.421E-14 5.049E-10 0.000E+00
 ETOT  277  -43.667944536740     -7.105E-15 5.326E-10 0.000E+00
 ETOT  278  -43.667944536740      7.105E-15 4.537E-10 0.000E+00
 ETOT  279  -43.667944536740     -2.842E-14 4.788E-10 0.000E+00
 ETOT  280  -43.667944536740      7.105E-15 4.078E-10 0.000E+00
 ETOT  281  -43.667944536740      0.000E+00 4.304E-10 0.000E+00
 ETOT  282  -43.667944536740      1.421E-14 3.664E-10 0.000E+00
 ETOT  283  -43.667944536740      1.421E-14 3.869E-10 0.000E+00
 ETOT  284  -43.667944536740     -1.421E-14 3.293E-10 0.000E+00
 ETOT  285  -43.667944536740     -1.421E-14 3.478E-10 0.000E+00
 ETOT  286  -43.667944536740      1.421E-14 2.960E-10 0.000E+00
 ETOT  287  -43.667944536740      1.421E-14 3.127E-10 0.000E+00
 ETOT  288  -43.667944536740      7.105E-15 2.660E-10 0.000E+00
 ETOT  289  -43.667944536740     -2.132E-14 2.811E-10 0.000E+00
 ETOT  290  -43.667944536740      1.421E-14 2.390E-10 0.000E+00
 ETOT  291  -43.667944536740     -1.421E-14 2.527E-10 0.000E+00
 ETOT  292  -43.667944536740      0.000E+00 2.148E-10 0.000E+00
 ETOT  293  -43.667944536740     -7.105E-15 2.271E-10 0.000E+00
 ETOT  294  -43.667944536740      7.105E-15 1.930E-10 0.000E+00
 ETOT  295  -43.667944536740      7.105E-15 2.042E-10 0.000E+00
 ETOT  296  -43.667944536740      7.105E-15 1.735E-10 0.000E+00
 ETOT  297  -43.667944536740      7.105E-15 1.835E-10 0.000E+00
 ETOT  298  -43.667944536740     -3.553E-14 1.559E-10 0.000E+00
 ETOT  299  -43.667944536740      1.421E-14 1.650E-10 0.000E+00
 ETOT  300  -43.667944536740      1.421E-14 1.401E-10 0.000E+00
 ETOT  301  -43.667944536740     -2.132E-14 1.483E-10 0.000E+00
 ETOT  302  -43.667944536740      7.105E-15 1.259E-10 0.000E+00
 ETOT  303  -43.667944536740     -1.421E-14 1.333E-10 0.000E+00
[...]
 ETOT  480  -13.104476854865     -8.882E-15 6.091E-19 0.000E+00
 ETOT  481  -13.104476854865      1.776E-15 6.898E-19 0.000E+00
 ETOT  482  -13.104476854865     -3.553E-15 5.283E-19 0.000E+00
 ETOT  483  -13.104476854865      3.553E-15 5.981E-19 0.000E+00
 ETOT  484  -13.104476854865     -1.066E-14 4.582E-19 0.000E+00
 ETOT  485  -13.104476854865      3.553E-15 5.187E-19 0.000E+00
 ETOT  486  -13.104476854865      0.000E+00 3.974E-19 0.000E+00
 ETOT  487  -13.104476854865      5.329E-15 4.498E-19 0.000E+00
 ETOT  488  -13.104476854865     -1.776E-15 3.447E-19 0.000E+00
 ETOT  489  -13.104476854865      3.553E-15 3.900E-19 0.000E+00
 ETOT  490  -13.104476854865      3.553E-15 2.990E-19 0.000E+00
 ETOT  491  -13.104476854865     -3.553E-15 3.382E-19 0.000E+00
 ETOT  492  -13.104476854865     -7.105E-15 2.593E-19 0.000E+00
 ETOT  493  -13.104476854865      5.329E-15 2.933E-19 0.000E+00
 ETOT  494  -13.104476854865      7.105E-15 2.249E-19 0.000E+00
 ETOT  495  -13.104476854865     -5.329E-15 2.543E-19 0.000E+00
 ETOT  496  -13.104476854865      8.882E-15 1.951E-19 0.000E+00
 ETOT  497  -13.104476854865     -1.776E-15 2.205E-19 0.000E+00
 ETOT  498  -13.104476854865      1.776E-15 1.692E-19 0.000E+00
 ETOT  499  -13.104476854865     -8.882E-15 1.912E-19 0.000E+00
 ETOT  500  -13.104476854865      1.421E-14 1.468E-19 0.000E+00
 ETOT  501  -13.104476854865     -1.066E-14 1.658E-19 0.000E+00
 ETOT  502  -13.104476854865      3.553E-15 1.273E-19 0.000E+00
 ETOT  503  -13.104476854865     -7.105E-15 1.438E-19 0.000E+00
 ETOT  504  -13.104476854865      1.776E-15 1.104E-19 0.000E+00
 ETOT  505  -13.104476854865     -7.105E-15 1.247E-19 0.000E+00
 ETOT  506  -13.104476854865      3.553E-15 9.578E-20 0.000E+00
 ETOT  507  -13.104476854865      0.000E+00 1.081E-19 0.000E+00
 ETOT  508  -13.104476854865      1.243E-14 8.307E-20 0.000E+00
 ETOT  509  -13.104476854865     -7.105E-15 9.378E-20 0.000E+00
 ETOT  510  -13.104476854865     -1.776E-15 7.205E-20 0.000E+00
 ETOT  511  -13.104476854865     -1.776E-15 8.133E-20 0.000E+00
 ETOT  512  -13.104476854865      7.105E-15 6.249E-20 0.000E+00
 ETOT  513  -13.104476854865      1.776E-15 7.052E-20 0.000E+00
 ETOT  514  -13.104476854865     -1.066E-14 5.420E-20 0.000E+00
 ETOT  515  -13.104476854865     -5.329E-15 6.115E-20 0.000E+00
 ETOT  516  -13.104476854865      8.882E-15 4.701E-20 0.000E+00
 ETOT  517  -13.104476854865      1.776E-15 5.303E-20 0.000E+00
 ETOT  518  -13.104476854865     -5.329E-15 4.078E-20 0.000E+00
 ETOT  519  -13.104476854865      8.882E-15 4.599E-20 0.000E+00
 ETOT  520  -13.104476854865     -5.329E-15 3.537E-20 0.000E+00
 ETOT  521  -13.104476854865      3.553E-15 3.988E-20 0.000E+00
 ETOT  522  -13.104476854865      0.000E+00 3.068E-20 0.000E+00
 ETOT  523  -13.104476854865     -5.329E-15 3.458E-20 0.000E+00
 ETOT  524  -13.104476854865      5.329E-15 2.661E-20 0.000E+00
 ETOT  525  -13.104476854865      8.882E-15 2.999E-20 0.000E+00
 ETOT  526  -13.104476854865     -1.066E-14 2.308E-20 0.000E+00
 ETOT  527  -13.104476854865      5.329E-15 2.600E-20 0.000E+00
 ETOT  528  -13.104476854865     -1.776E-15 2.002E-20 0.000E+00
 ETOT  529  -13.104476854865     -1.776E-15 2.255E-20 0.000E+00
 ETOT  530  -13.104476854865      0.000E+00 1.736E-20 0.000E+00
 ETOT  531  -13.104476854865     -1.776E-15 1.956E-20 0.000E+00
 ETOT  532  -13.104476854865     -5.329E-15 1.506E-20 0.000E+00
 ETOT  533  -13.104476854865      1.066E-14 1.696E-20 0.000E+00
 ETOT  534  -13.104476854865     -5.329E-15 1.306E-20 0.000E+00
 ETOT  535  -13.104476854865      7.105E-15 1.471E-20 0.000E+00
 ETOT  536  -13.104476854865     -5.329E-15 1.133E-20 0.000E+00
 ETOT  537  -13.104476854865     -1.776E-15 1.276E-20 0.000E+00
 ETOT  538  -13.104476854865      3.553E-15 9.951E-21 0.000E+00
 
 At SCF step  538   max residual=  9.95E-21 < tolwfr=  1.00E-20 =>converged.
================================================================================
 
 ----iterations are completed or convergence reached----
 
 dfpt_looppert: DFPT cycle converged with prtwf=-1. Will skip output of the 1st-order WFK file.
 dfpt_looppert : ek2=    2.4288955159E+01
          f-sum rule ratio=    1.0029053051E+00
 prteigrs : about to open file /scratch/users/j/a/jabreu/flow_simple_remain_atoms/flow/w285/t1/tmpdata/tmp_1WF1_EIG
 Expectation of eigenvalue derivatives (hartree) for nkpt=   2  k points:
  (in case of degenerate eigenvalues, averaged derivative)
 kpt#   1, nband= 29, wtk=  0.50000, kpt=  0.2525  0.2525  0.5000 (reduced coord)
  -0.00000    0.00000   -0.00000    0.00000   -0.00000    0.00000    0.00000   -0.00000
   0.00000    0.00000   -0.00000    0.00000    0.00000   -0.00000   -0.00000   -0.00000
   0.00000    0.00000   -0.00000   -0.00000    0.00000   -0.00000    0.00000   -0.00000
   0.00000   -0.00000    0.00000    0.00000    0.00007
 prteigrs : prtvol=0 or 1, do not print more k-points.
 
 
 Eight components of 2nd-order total energy (hartree) are
 1,2,3: 0th-order hamiltonian combined with 1st-order wavefunctions
     kin0=   3.78185953E+01 eigvalue=  -1.08435804E+00  local=  -1.84658284E+01
 4,5,6: 1st-order hamiltonian combined with 1st and 0th-order wfs
     kin1=  -2.43595220E+01  Hartree=   0.00000000E+00     xc=   0.00000000E+00
 7,8,9: eventually, occupation + non-local contributions
    edocc=   1.50637808E+00     enl0=  -6.67031010E+00   enl1=  -1.84943173E+00
 1-9 gives the relaxation energy (to be shifted if some occ is /=2.0)
   erelax=  -1.31044769E+01
  No Ewald or frozen-wf contrib.: the relaxation energy is the total one
 2DEtotal=   -0.1310447685E+02 Ha. Also 2DEtotal=   -0.356590949982E+03 eV
    (  non-var. 2DEtotal :   -1.3104476855E+01 Ha)
 
 CALCULATION OF EFFECTIVE MASSES
 NOTE : Additional infos (eff. mass eigenvalues, eigenvectors and, if degenerate, average mass) are available in stdout.

 K-point ( 0.253, 0.253, 0.500) | band =    20
 Effective mass tensor:
             -3.2344394710              1.2379208524              0.6834950307
              1.2379208524             -1.8050093027             -0.3946150509
              0.6834950307             -0.3946150509             -1.5297583931
 Effective mass tensor eigenvalues:
             -4.1838426334             -1.2950685946             -1.0902959387
 Angular average effective mass 1/(<1/m>)=  -1.5557287133
 Angular average effective mass for Frohlich model (<m**0.5>)**2=  -1.6870440277
 Effective masses along directions: (cart. coord. / red. coord. -> eff. mass)
    1:   1.000000  0.000000  0.000000 /   0.894427 -0.447214  0.000000 ->  -2.2673587836
    2:   0.000000  1.000000  0.000000 /   0.000000  1.000000  0.000000 ->  -1.3184456536
    3:   0.000000  0.000000  1.000000 /   0.000000  0.000000  1.000000 ->  -1.3720317815
    4:   0.577350  0.577350  0.577350 /   0.532616  0.194951  0.823598 ->  -1.1606373182
    5:   0.000000  0.707107  0.707107 /   0.000000  0.488639  0.872486 ->  -1.4906939010
    6:   0.707107  0.000000  0.707107 /   0.524061 -0.262031  0.810370 ->  -1.4062951604
    7:   0.707107  0.707107  0.000000 /   0.939071  0.343724  0.000000 ->  -1.1433079703

 K-point ( 0.333, 0.333, 0.000) | band =    21
 Effective mass tensor:
              1.3467903736              0.0000000645             -0.0000000200
              0.0000000645              1.3467902890             -0.0000000114
             -0.0000000200             -0.0000000114              1.3127280465
 Effective mass tensor eigenvalues:
              1.3127280465              1.3467902542              1.3467904084
 Angular average effective mass 1/(<1/m>)=   1.3352415121
 Angular average effective mass for Frohlich model (<m**0.5>)**2=   1.3353001872
 Effective masses along directions: (cart. coord. / red. coord. -> eff. mass)
    1:   1.000000  0.000000  0.000000 /   0.894427 -0.447214  0.000000 ->   1.3467903736
    2:   0.000000  1.000000  0.000000 /   0.000000  1.000000  0.000000 ->   1.3467902890
    3:   0.000000  0.000000  1.000000 /   0.000000  0.000000  1.000000 ->   1.3127280465
    4:   0.577350  0.577350  0.577350 /   0.532616  0.194951  0.823598 ->   1.3352415332
    5:   0.000000  0.707107  0.707107 /   0.000000  0.488639  0.872486 ->   1.3295410273
    6:   0.707107  0.000000  0.707107 /   0.524061 -0.262031  0.810370 ->   1.3295410599
    7:   0.707107  0.707107  0.000000 /   0.939071  0.343724  0.000000 ->   1.3467903957

 END OF EFFECTIVE MASSES SECTION

================================================================================
 
 ---- first-order wavefunction calculations are completed ----
 
 
 Total localisation tensor (bohr^2) in cartesian coordinates
  WARNING : still subject to testing - especially symmetries.
      direction              matrix element
   alpha     beta       real part   imaginary part
     1        1       1.5424208933    0.0000000000
     1        2      -0.5343099653    0.0000000000
     1        3       0.0000000000    0.0000000000
     2        1      -0.5343099653    0.0000000000
     2        2       0.9254520068    0.0000000000
     2        3       0.0000000000    0.0000000000
     3        1       0.0000000000    0.0000000000
     3        2       0.0000000000    0.0000000000
     3        3       0.8502007840    0.0000000000
 
 respfn : d/dk was computed, but no 2DTE, so no DDB output.
 
== END DATASET(S) ==============================================================
================================================================================
  
 -outvars: echo values of variables after computation  --------
            acell      1.0000000000E+00  1.0000000000E+00  1.0000000000E+00 Bohr
              amu      1.38905500E+02  1.59994000E+01
             ecut      5.20000000E+01 Hartree
           etotal     -1.3104476855E+01
            fcart      0.0000000000E+00  0.0000000000E+00  0.0000000000E+00
                       0.0000000000E+00  0.0000000000E+00  0.0000000000E+00
                       0.0000000000E+00  0.0000000000E+00  0.0000000000E+00
                       0.0000000000E+00  0.0000000000E+00  0.0000000000E+00
                       0.0000000000E+00  0.0000000000E+00  0.0000000000E+00
-          fftalg         512
           irdden           1
           irdwfk           1
              ixc     -116133
              kpt      2.52525253E-01  2.52525253E-01  5.00000000E-01
                       3.33333333E-01  3.33333333E-01  0.00000000E+00
           kptopt           0
P           mkmem           2
P          mkqmem           2
P          mk1mem           2
            natom           5
            nband          29
           nbdbuf           4
            ngfft          48      48      80
             nkpt           2
            nstep        2000
             nsym          12
           ntypat           2
              occ      2.000000  2.000000  2.000000  2.000000  2.000000  2.000000
                       2.000000  2.000000  2.000000  2.000000  2.000000  2.000000
                       2.000000  2.000000  2.000000  2.000000  2.000000  2.000000
                       2.000000  2.000000  0.000000  0.000000  0.000000  0.000000
                       0.000000  0.000000  0.000000  0.000000  0.000000
        optdriver           1
            prtwf          -1
            rfdir           1       1       1
           rfelfd           2
            rprim      7.3742740231E+00  0.0000000000E+00  0.0000000000E+00
                      -3.6871370116E+00  6.3863086385E+00  0.0000000000E+00
                       0.0000000000E+00  0.0000000000E+00  1.1403034684E+01
          spgroup         164
           strten      0.0000000000E+00  0.0000000000E+00  0.0000000000E+00
                       0.0000000000E+00  0.0000000000E+00  0.0000000000E+00
           symrel      1  0  0   0  1  0   0  0  1      -1  0  0   0 -1  0   0  0 -1
                      -1  0  0   1  1  0   0  0  1       1  0  0  -1 -1  0   0  0 -1
                       0  1  0  -1 -1  0   0  0  1       0 -1  0   1  1  0   0  0 -1
                       0 -1  0  -1  0  0   0  0  1       0  1  0   1  0  0   0  0 -1
                      -1 -1  0   1  0  0   0  0  1       1  1  0  -1  0  0   0  0 -1
                       1  1  0   0 -1  0   0  0  1      -1 -1  0   0  1  0   0  0 -1
           tolwfr      1.00000000E-20
            typat      1  1  2  2  2
           useylm           1
              wtk        0.50000    0.50000
           xangst     -1.7639711750E-11  2.2529926523E+00  4.5535175010E+00
                       1.9511488715E+00  1.1264963262E+00  1.4807085626E+00
                      -1.7639711750E-11  2.2529926523E+00  2.1359531024E+00
                       1.9511488715E+00  1.1264963262E+00  3.8982729612E+00
                      -2.8882805354E-16 -2.5013243169E-16  0.0000000000E+00
            xcart     -3.3334224270E-11  4.2575390923E+00  8.6049010182E+00
                       3.6871370115E+00  2.1287695462E+00  2.7981336660E+00
                      -3.3334224270E-11  4.2575390923E+00  4.0363663963E+00
                       3.6871370115E+00  2.1287695462E+00  7.3666682879E+00
                      -5.4580592069E-16 -4.7268179286E-16  0.0000000000E+00
             xred      3.3333333333E-01  6.6666666667E-01  7.5461500000E-01
                       6.6666666667E-01  3.3333333333E-01  2.4538500000E-01
                       3.3333333333E-01  6.6666666667E-01  3.5397300000E-01
                       6.6666666667E-01  3.3333333333E-01  6.4602700000E-01
                      -1.1102230246E-16 -7.4014868308E-17  0.0000000000E+00
            znucl       57.00000    8.00000
 
================================================================================


- Timing analysis has been suppressed with timopt=0



================================================================================

 Suggested references for the acknowledgment of ABINIT usage.

 The users of ABINIT have little formal obligations with respect to the ABINIT group
 (those specified in the GNU General Public License, http://www.gnu.org/copyleft/gpl.txt).
 However, it is common practice in the scientific literature,
 to acknowledge the efforts of people that have made the research possible.
 In this spirit, please find below suggested citations of work written by ABINIT developers,
 corresponding to implementations inside of ABINIT that you have used in the present run.
 Note also that it will be of great value to readers of publications presenting these results,
 to read papers enabling them to understand the theoretical formalism and details
 of the ABINIT implementation.
 For information on why they are suggested, see also https://docs.abinit.org/theory/acknowledgments.
-
- [1] Precise effective masses from density functional perturbation theory
- J. Laflamme Janssen, Y. Gillet, S. Ponce, A. Martin, M. Torrent, and X. Gonze. Phys. Rev. B 93, 205147 (2016)
- Comment: in case the DFPT prediction of effective masses is used.
- Strong suggestion to cite this paper in your publications.
- DOI and bibtex: see https://docs.abinit.org/theory/bibliography/#laflamme2016
-
- [2] Libxc: A library of exchange and correlation functionals for density functional theory.
- M.A.L. Marques, M.J.T. Oliveira, T. Burnus, Computer Physics Communications 183, 2227 (2012).
- Comment: to be cited when LibXC is used (negative value of ixc)
- Strong suggestion to cite this paper.
- DOI and bibtex: see https://docs.abinit.org/theory/bibliography/#marques2012
-
- [3] The Abinit project: Impact, environment and recent developments.
- Computer Phys. Comm. 248, 107042 (2020).
- X.Gonze, B. Amadon, G. Antonius, F.Arnardi, L.Baguet, J.-M.Beuken,
- J.Bieder, F.Bottin, J.Bouchet, E.Bousquet, N.Brouwer, F.Bruneval,
- G.Brunin, T.Cavignac, J.-B. Charraud, Wei Chen, M.Cote, S.Cottenier,
- J.Denier, G.Geneste, Ph.Ghosez, M.Giantomassi, Y.Gillet, O.Gingras,
- D.R.Hamann, G.Hautier, Xu He, N.Helbig, N.Holzwarth, Y.Jia, F.Jollet,
- W.Lafargue-Dit-Hauret, K.Lejaeghere, M.A.L.Marques, A.Martin, C.Martins,
- H.P.C. Miranda, F.Naccarato, K. Persson, G.Petretto, V.Planes, Y.Pouillon,
- S.Prokhorenko, F.Ricci, G.-M.Rignanese, A.H.Romero, M.M.Schmitt, M.Torrent,
- M.J.van Setten, B.Van Troeye, M.J.Verstraete, G.Zerah and J.W.Zwanzig
- Comment: the fifth generic paper describing the ABINIT project.
- Note that a version of this paper, that is not formatted for Computer Phys. Comm. 
- is available at https://www.abinit.org/sites/default/files/ABINIT20.pdf .
- The licence allows the authors to put it on the Web.
- DOI and bibtex: see https://docs.abinit.org/theory/bibliography/#gonze2020
-
- [4] First-principles responses of solids to atomic displacements and homogeneous electric fields:,
- implementation of a conjugate-gradient algorithm. X. Gonze, Phys. Rev. B55, 10337 (1997).
- Comment: Non-vanishing rfphon and/or rfelfd, in the norm-conserving case.
- DOI and bibtex: see https://docs.abinit.org/theory/bibliography/#gonze1997
-
- [5] Dynamical matrices, Born effective charges, dielectric permittivity tensors, and ,
- interatomic force constants from density-functional perturbation theory,
- X. Gonze and C. Lee, Phys. Rev. B55, 10355 (1997).
- Comment: Non-vanishing rfphon and/or rfelfd, in the norm-conserving case.
- DOI and bibtex: see https://docs.abinit.org/theory/bibliography/#gonze1997a
-
- [6] Optimized norm-conserving Vanderbilt pseudopotentials.
- D.R. Hamann, Phys. Rev. B 88, 085117 (2013).
- Comment: Some pseudopotential generated using the ONCVPSP code were used.
- DOI and bibtex: see https://docs.abinit.org/theory/bibliography/#hamann2013
-
- [7] ABINIT: Overview, and focus on selected capabilities
- J. Chem. Phys. 152, 124102 (2020).
- A. Romero, D.C. Allan, B. Amadon, G. Antonius, T. Applencourt, L.Baguet,
- J.Bieder, F.Bottin, J.Bouchet, E.Bousquet, F.Bruneval,
- G.Brunin, D.Caliste, M.Cote,
- J.Denier, C. Dreyer, Ph.Ghosez, M.Giantomassi, Y.Gillet, O.Gingras,
- D.R.Hamann, G.Hautier, F.Jollet, G. Jomard,
- A.Martin, 
- H.P.C. Miranda, F.Naccarato, G.Petretto, N.A. Pike, V.Planes,
- S.Prokhorenko, T. Rangel, F.Ricci, G.-M.Rignanese, M.Royo, M.Stengel, M.Torrent,
- M.J.van Setten, B.Van Troeye, M.J.Verstraete, J.Wiktor, J.W.Zwanziger, and X.Gonze.
- Comment: a global overview of ABINIT, with focus on selected capabilities .
- Note that a version of this paper, that is not formatted for J. Chem. Phys 
- is available at https://www.abinit.org/sites/default/files/ABINIT20_JPC.pdf .
- The licence allows the authors to put it on the Web.
- DOI and bibtex: see https://docs.abinit.org/theory/bibliography/#romero2020
-
- [8] Recent developments in the ABINIT software package.
- Computer Phys. Comm. 205, 106 (2016).
- X.Gonze, F.Jollet, F.Abreu Araujo, D.Adams, B.Amadon, T.Applencourt,
- C.Audouze, J.-M.Beuken, J.Bieder, A.Bokhanchuk, E.Bousquet, F.Bruneval
- D.Caliste, M.Cote, F.Dahm, F.Da Pieve, M.Delaveau, M.Di Gennaro,
- B.Dorado, C.Espejo, G.Geneste, L.Genovese, A.Gerossier, M.Giantomassi,
- Y.Gillet, D.R.Hamann, L.He, G.Jomard, J.Laflamme Janssen, S.Le Roux,
- A.Levitt, A.Lherbier, F.Liu, I.Lukacevic, A.Martin, C.Martins,
- M.J.T.Oliveira, S.Ponce, Y.Pouillon, T.Rangel, G.-M.Rignanese,
- A.H.Romero, B.Rousseau, O.Rubel, A.A.Shukri, M.Stankovski, M.Torrent,
- M.J.Van Setten, B.Van Troeye, M.J.Verstraete, D.Waroquier, J.Wiktor,
- B.Xu, A.Zhou, J.W.Zwanziger.
- Comment: the fourth generic paper describing the ABINIT project.
- Note that a version of this paper, that is not formatted for Computer Phys. Comm. 
- is available at https://www.abinit.org/sites/default/files/ABINIT16.pdf .
- The licence allows the authors to put it on the Web.
- DOI and bibtex: see https://docs.abinit.org/theory/bibliography/#gonze2016
-
- Proc.   0 individual time (sec): cpu=       2170.6  wall=       2182.6
 
================================================================================
 
 Calculation completed.
.Delivered   2 WARNINGs and   5 COMMENTs to log file.
+Overall time at end (sec) : cpu=       2170.6  wall=       2182.6
