
.Version 9.5.2 of ABINIT 
.(MPI version, prepared for a x86_64_linux_intel19.1 computer) 

.Copyright (C) 1998-2021 ABINIT group . 
 ABINIT comes with ABSOLUTELY NO WARRANTY.
 It is free software, and you are welcome to redistribute it
 under certain conditions (GNU General Public License,
 see ~abinit/COPYING or http://www.gnu.org/copyleft/gpl.txt).

 ABINIT is a project of the Universite Catholique de Louvain,
 Corning Inc. and other collaborators, see ~abinit/doc/developers/contributors.txt .
 Please read https://docs.abinit.org/theory/acknowledgments for suggested
 acknowledgments of the ABINIT effort.
 For more information, see https://www.abinit.org .

.Starting date : Mon 31 May 2021.
- ( at 23h03 )
  
- input  file    -> /scratch/users/j/a/jabreu/flow_simple_11atoms/flow/w394/t1/run.abi
- output file    -> /scratch/users/j/a/jabreu/flow_simple_11atoms/flow/w394/t1/run.abo
- root for input  files -> /scratch/users/j/a/jabreu/flow_simple_11atoms/flow/w394/t1/indata/in
- root for output files -> /scratch/users/j/a/jabreu/flow_simple_11atoms/flow/w394/t1/outdata/out
 
 
 Symmetries : space group Cc (#  9); Bravais mC (1-face-center monocl.)
================================================================================
 Values of the parameters that define the memory need of the present run (RF).
     intxc =       0      iscf =       7    lmnmax =      18     lnmax =       6
     mgfft =      80  mpssoang =       3    mqgrid =    3636     natom =      12
  nloc_mem =       1    nspden =       1   nspinor =       1    nsppol =       1
      nsym =       2    n1xccc =    2501    ntypat =       3    occopt =       1
   xclevel =       2
-    mband =          99        mffmem =           1         mkmem =           2
-   mkqmem =           2        mk1mem =           2           mpw =       24429
      nfft =      512000          nkpt =           2
================================================================================
P This job should need less than                     634.918 Mbytes of memory.
  Rough estimation (10% accuracy) of disk space for files :
_ WF disk file :     73.808 Mbytes ; DEN or POT disk file :      3.908 Mbytes.
================================================================================
 
--------------------------------------------------------------------------------
------------- Echo of variables that govern the present computation ------------
--------------------------------------------------------------------------------
-
- outvars: echo of selected default values                                      
-   iomode0 =  0 , fftalg0 =512 , wfoptalg0 =  0
-
- outvars: echo of global parameters not present in the input file              
-  max_nthreads =    0
-
 -outvars: echo values of preprocessed input variables --------
            acell      1.0000000000E+00  1.0000000000E+00  1.0000000000E+00 Bohr
              amu      6.35460000E+01  2.80855000E+01  7.89600000E+01
             ecut      4.60000000E+01 Hartree
-          fftalg         512
           irdden           1
           irdwfk           1
           istwfk        0    1
              ixc     -116133
              kpt      2.77777778E-02  0.00000000E+00  0.00000000E+00
                       0.00000000E+00  0.00000000E+00  0.00000000E+00
           kptopt           0
P           mkmem           2
P          mkqmem           2
P          mk1mem           2
            natom          12
            nband          99
           nbdbuf           4
            ngfft          80      80      80
             nkpt           2
            nstep        2000
             nsym           2
           ntypat           3
              occ      2.000000  2.000000  2.000000  2.000000  2.000000  2.000000
                       2.000000  2.000000  2.000000  2.000000  2.000000  2.000000
                       2.000000  2.000000  2.000000  2.000000  2.000000  2.000000
                       2.000000  2.000000  2.000000  2.000000  2.000000  2.000000
                       2.000000  2.000000  2.000000  2.000000  2.000000  2.000000
                       2.000000  2.000000  2.000000  2.000000  2.000000  2.000000
                       2.000000  2.000000  2.000000  2.000000  2.000000  2.000000
                       2.000000  2.000000  2.000000  2.000000  2.000000  2.000000
                       2.000000  2.000000  2.000000  2.000000  2.000000  2.000000
                       2.000000  2.000000  2.000000  2.000000  2.000000  2.000000
                       2.000000  2.000000  2.000000  2.000000  2.000000  2.000000
                       2.000000  2.000000  2.000000  2.000000  2.000000  2.000000
                       2.000000  2.000000  2.000000  2.000000  2.000000  2.000000
                       2.000000  2.000000  2.000000  2.000000  2.000000  2.000000
                       2.000000  2.000000  2.000000  2.000000  2.000000  2.000000
                       0.000000  0.000000  0.000000  0.000000  0.000000  0.000000
                       0.000000  0.000000  0.000000
        optdriver           1
            prtwf          -1
            rfdir           1       1       1
           rfelfd           2
            rprim      1.2482246761E+01  0.0000000000E+00  2.0182370156E+00
                      -6.8412101964E+00  1.0440513745E+01  2.0182370156E+00
                       0.0000000000E+00  0.0000000000E+00  1.2577809972E+01
          spgroup           9
           symrel      1  0  0   0  1  0   0  0  1       0  1  0   1  0  0   0  0  1
            tnons      0.0000000  0.0000000  0.0000000    -0.0000000  0.0000000  0.5000000
           tolwfr      1.00000000E-20
            typat      1  1  1  1  2  2  3  3  3  3  3  3
           useylm           1
              wtk        0.50000    0.50000
           xangst     -1.0866848598E+00  4.2461921984E+00  4.4030032431E+00
                       4.1472235363E+00  1.4182979625E+00  7.7309484285E+00
                       2.3755524357E+00  2.3059862654E+00  4.4006068097E+00
                       6.2681245641E-01  3.2508349966E+00  7.7285519952E+00
                       5.8162390787E+00  6.3137798090E-01  4.2989778525E+00
                      -2.6596336571E+00  5.2109139299E+00  7.6269230379E+00
                       2.0414043942E+00  1.6836525162E+00  6.6630166726E+00
                       2.8941269542E-01  2.6302581599E+00  3.3350714871E+00
                       3.7735386095E+00  7.4454966214E-01  3.3054590584E+00
                      -1.4454200574E+00  3.5643665207E+00  6.6334042439E+00
                       1.8325179960E+00  5.3445331992E+00  7.6081102470E+00
                       3.4659650906E+00  4.4619775116E+00  4.2801650616E+00
            xcart     -2.0535367778E+00  8.0241403626E+00  8.3204702916E+00
                       7.8371166955E+00  2.6801947239E+00  1.4609375277E+01
                       4.4891435178E+00  4.3576825078E+00  8.3159416889E+00
                       1.1845038793E+00  6.1431878469E+00  1.4604846675E+01
                       1.0991098982E+01  1.1931314702E+00  8.1238907925E+00
                      -5.0259792257E+00  9.8472002296E+00  1.4412795778E+01
                       3.8576952315E+00  3.1816421586E+00  1.2591276730E+01
                       5.4691073373E-01  4.9704675810E+00  6.3023717442E+00
                       7.1309545237E+00  1.4069949538E+00  6.2464123639E+00
                      -2.7314480555E+00  6.7356765614E+00  1.2535317350E+01
                       3.4629571460E+00  1.0099704055E+01  1.4377244756E+01
                       6.5497248073E+00  8.4319155079E+00  8.0883397700E+00
             xred      2.5671100000E-01  7.6855800000E-01  4.9700500000E-01
                       7.6855800000E-01  2.5671100000E-01  9.9700500000E-01
                       5.8839900000E-01  4.1738200000E-01  4.9977200000E-01
                       4.1738200000E-01  5.8839900000E-01  9.9977200000E-01
                       9.4317200000E-01  1.1427900000E-01  4.7621200000E-01
                       1.1427900000E-01  9.4317200000E-01  9.7621200000E-01
                       4.7607500000E-01  3.0474000000E-01  8.7578100000E-01
                       3.0474000000E-01  4.7607500000E-01  3.7578100000E-01
                       6.4514800000E-01  1.3476300000E-01  3.7147700000E-01
                       1.3476300000E-01  6.4514800000E-01  8.7147700000E-01
                       8.0761500000E-01  9.6735700000E-01  8.5825200000E-01
                       9.6735700000E-01  8.0761500000E-01  3.5825200000E-01
            znucl       29.00000   14.00000   34.00000
 
================================================================================
 
 chkinp: Checking input parameters for consistency.
 
================================================================================
== DATASET  1 ==================================================================
-   mpi_nproc: 1, omp_nthreads: -1 (-1 if OMP is not activated)
 

--- !DatasetInfo
iteration_state: {dtset: 1, }
dimensions: {natom: 12, nkpt: 2, mband: 99, nsppol: 1, nspinor: 1, nspden: 1, mpw: 24429, }
cutoff_energies: {ecut:  46.0, pawecutdg:  -1.0, }
electrons: {nelect:   1.80000000E+02, charge:   0.00000000E+00, occopt:   1.00000000E+00, tsmear:   1.00000000E-02, }
meta: {optdriver: 1, rfelfd: 2, }
...

 Real(R)+Recip(G) space primitive vectors, cartesian coordinates (Bohr,Bohr^-1):
 R(1)= 12.4822468  0.0000000  2.0182370  G(1)=  0.0801138  0.0524950  0.0000000
 R(2)= -6.8412102 10.4405137  2.0182370  G(2)=  0.0000000  0.0957807  0.0000000
 R(3)=  0.0000000  0.0000000 12.5778100  G(3)= -0.0128551 -0.0237923  0.0795051
 Unit cell volume ucvol=  1.6391536E+03 bohr^3
 Angles (23,13,12)=  8.08154133E+01  8.08154133E+01  1.20572929E+02 degrees
 
 getcut: wavevector=  0.0000  0.0000  0.0000  ngfft=  80  80  80
         ecut(hartree)=     46.000   => boxcut(ratio)=   2.07254
 
--- Pseudopotential description ------------------------------------------------
- pspini: atom type   1  psp file is /scratch/users/j/a/jabreu/pseudos/PBEsol/Cu.psp8
- pspatm: opening atomic psp file    /scratch/users/j/a/jabreu/pseudos/PBEsol/Cu.psp8
- Cu    ONCVPSP-3.3.0  r_core=   1.26204   1.45626   1.76249
- 29.00000  19.00000    180112                znucl, zion, pspdat
    8 -116133    2    4       600   0.00000   pspcod,pspxc,lmax,lloc,mmax,r2well
    5.99000000000000    3.50000000000000    0.00000000000000   rchrg,fchrg,qchrg
     nproj     2     2     2
     extension_switch     1
  pspatm : epsatm=   21.63488701
         --- l  ekb(1:nproj) -->
             0    5.008230   -0.401634
             1   -3.496700   -0.765945
             2   -6.895851   -2.521180
 pspatm: atomic psp has been read  and splines computed
 
- pspini: atom type   2  psp file is /scratch/users/j/a/jabreu/pseudos/PBEsol/Si.psp8
- pspatm: opening atomic psp file    /scratch/users/j/a/jabreu/pseudos/PBEsol/Si.psp8
- Si    ONCVPSP-3.3.0  r_core=   1.60303   1.72197   1.91712
- 14.00000   4.00000    180112                znucl, zion, pspdat
    8 -116133    2    4       600   0.00000   pspcod,pspxc,lmax,lloc,mmax,r2well
    5.99000000000000    4.00000000000000    0.00000000000000   rchrg,fchrg,qchrg
     nproj     2     2     2
     extension_switch     1
  pspatm : epsatm=    7.86468782
         --- l  ekb(1:nproj) -->
             0    5.384426    0.843824
             1    2.663259    0.615854
             2   -2.267219   -0.458043
 pspatm: atomic psp has been read  and splines computed
 
- pspini: atom type   3  psp file is /scratch/users/j/a/jabreu/pseudos/PBEsol/Se.psp8
- pspatm: opening atomic psp file    /scratch/users/j/a/jabreu/pseudos/PBEsol/Se.psp8
- Se    ONCVPSP-3.3.0  r_core=   1.81943   1.50330   1.90835
- 34.00000  16.00000    180112                znucl, zion, pspdat
    8 -116133    2    4       600   0.00000   pspcod,pspxc,lmax,lloc,mmax,r2well
    5.99000000000000    5.00000000000000    0.00000000000000   rchrg,fchrg,qchrg
     nproj     2     2     2
     extension_switch     1
  pspatm : epsatm=   29.17862020
         --- l  ekb(1:nproj) -->
             0    8.973804    1.019550
             1    6.849857    1.297308
             2   -9.203962   -3.731027
 pspatm: atomic psp has been read  and splines computed
 
   4.99213161E+04                                ecore*ucvol(ha*bohr**3)
--------------------------------------------------------------------------------
 
 
 ==>  initialize data related to q vector <== 
 
 The list of irreducible perturbations for this q vector is:
    1)    idir= 1    ipert=  13
    2)    idir= 2    ipert=  13
    3)    idir= 3    ipert=  13
 
================================================================================
 
--------------------------------------------------------------------------------
 Perturbation wavevector (in red.coord.)   0.000000  0.000000  0.000000
 Perturbation : derivative vs k along direction   1
 
 dfpt_looppert : COMMENT -
  In a d/dk calculation, iscf is set to -3 automatically.
 The set of symmetries contains only one element for this perturbation.
 symkpt : not enough symmetry to change the number of k points.
 
--------------------------------------------------------------------------------
 
--------------------------------------------------------------------------------
 
 Initialisation of the first-order wave-functions :
  ireadwf=   0

--- !BeginCycle
iteration_state: {dtset: 1, }
solver: {iscf: 7, nstep: 2000, nline: 4, wfoptalg: 0, }
tolerances: {tolwfr: 1.00E-20, }
...
 
     iter   2DEtotal(Ha)        deltaE(Ha) residm    vres2
-ETOT  1  -135.06110049955     -1.351E+02 2.990E-01 0.000E+00
 ETOT  2  -135.77796210532     -7.169E-01 9.297E-03 0.000E+00
 ETOT  3  -135.83171194819     -5.375E-02 2.104E-03 0.000E+00
 ETOT  4  -135.83871647091     -7.005E-03 1.534E-04 0.000E+00
 ETOT  5  -135.83976047582     -1.044E-03 4.162E-05 0.000E+00
 ETOT  6  -135.83992452980     -1.641E-04 4.755E-06 0.000E+00
 ETOT  7  -135.83995114519     -2.662E-05 1.398E-06 0.000E+00
 ETOT  8  -135.83995556560     -4.420E-06 1.627E-07 0.000E+00
 ETOT  9  -135.83995631249     -7.469E-07 4.900E-08 0.000E+00
 ETOT 10  -135.83995644060     -1.281E-07 5.727E-09 0.000E+00
 ETOT 11  -135.83995646284     -2.224E-08 1.745E-09 0.000E+00
 ETOT 12  -135.83995646675     -3.905E-09 2.044E-10 0.000E+00
 ETOT 13  -135.83995646744     -6.918E-10 6.266E-11 0.000E+00
 ETOT 14  -135.83995646756     -1.237E-10 7.352E-12 0.000E+00
 ETOT 15  -135.83995646759     -2.234E-11 2.261E-12 0.000E+00
 ETOT 16  -135.83995646759     -4.007E-12 2.657E-13 0.000E+00
 ETOT 17  -135.83995646759     -5.684E-13 8.188E-14 0.000E+00
 ETOT 18  -135.83995646759     -1.990E-13 9.633E-15 0.000E+00
 ETOT 19  -135.83995646759      0.000E+00 2.973E-15 0.000E+00
 ETOT 20  -135.83995646759     -1.137E-13 3.501E-16 0.000E+00
 ETOT 21  -135.83995646759      2.842E-14 1.082E-16 0.000E+00
 ETOT 22  -135.83995646759      2.842E-14 1.275E-17 0.000E+00
 ETOT 23  -135.83995646759      0.000E+00 3.945E-18 0.000E+00
 ETOT 24  -135.83995646759     -5.684E-14 4.653E-19 0.000E+00
 ETOT 25  -135.83995646759     -5.684E-14 1.441E-19 0.000E+00
 ETOT 26  -135.83995646759      5.684E-14 1.700E-20 0.000E+00
 ETOT 27  -135.83995646759      2.842E-14 9.779E-21 0.000E+00
 
 At SCF step   27   max residual=  9.78E-21 < tolwfr=  1.00E-20 =>converged.
================================================================================
 
 ----iterations are completed or convergence reached----
 
 dfpt_looppert: DFPT cycle converged with prtwf=-1. Will skip output of the 1st-order WFK file.
 dfpt_looppert : ek2=    1.3038225817E+02
          f-sum rule ratio=    1.1747397781E+00
 prteigrs : about to open file /scratch/users/j/a/jabreu/flow_simple_11atoms/flow/w394/t1/tmpdata/tmp_1WF1_EIG
 Expectation of eigenvalue derivatives (hartree) for nkpt=   2  k points:
  (in case of degenerate eigenvalues, averaged derivative)
 kpt#   1, nband= 99, wtk=  0.50000, kpt=  0.0278  0.0000  0.0000 (reduced coord)
   0.00000   -0.00000    0.00000   -0.00000    0.00000   -0.00000   -0.00000   -0.00000
   0.00000   -0.00000    0.00000   -0.00000    0.00000    0.00000    0.00000    0.00000
   0.00000   -0.00000    0.00000    0.00000    0.00000    0.00000    0.00000    0.00000
  -0.00000    0.00000   -0.00000   -0.00000    0.00000   -0.00000   -0.00000   -0.00000
  -0.00000   -0.00000    0.00000   -0.00000    0.00000    0.00000    0.00000   -0.00000
   0.00000   -0.00000    0.00000   -0.00000    0.00000   -0.00000    0.00448    0.00147
  -0.00421   -0.00095   -0.01000    0.00409    0.00181    0.00650    0.00409   -0.01090
  -0.00080    0.01497    0.00325   -0.00365    0.03660   -0.00749    0.00136   -0.00491
  -0.00941   -0.00363   -0.00269   -0.00524   -0.00425   -0.00169   -0.00406   -0.00745
   0.00209   -0.00351   -0.00011   -0.00518    0.00054    0.00134   -0.00277    0.01124
  -0.00190    0.02003    0.00208   -0.01030   -0.00153   -0.01778   -0.02590   -0.07700
  -0.05244   -0.00143    0.11219    0.03813    0.03454    0.01517    0.00528    0.01283
  -0.00053   -0.01264   -0.00020
 prteigrs : prtvol=0 or 1, do not print more k-points.
 
 
 Eight components of 2nd-order total energy (hartree) are
 1,2,3: 0th-order hamiltonian combined with 1st-order wavefunctions
     kin0=   1.68532601E+02 eigvalue=   1.30817591E+01  local=  -6.95578529E+01
 4,5,6: 1st-order hamiltonian combined with 1st and 0th-order wfs
     kin1=  -1.53165225E+02  Hartree=   0.00000000E+00     xc=   0.00000000E+00
 7,8,9: eventually, occupation + non-local contributions
    edocc=   1.96905615E+01     enl0=   4.09288771E+00   enl1=  -1.18514688E+02
 1-9 gives the relaxation energy (to be shifted if some occ is /=2.0)
   erelax=  -1.35839956E+02
  No Ewald or frozen-wf contrib.: the relaxation energy is the total one
 2DEtotal=   -0.1358399565E+03 Ha. Also 2DEtotal=   -0.369639319897E+04 eV
    (  non-var. 2DEtotal :   -1.3583995647E+02 Ha)
 
--------------------------------------------------------------------------------
 Perturbation wavevector (in red.coord.)   0.000000  0.000000  0.000000
 Perturbation : derivative vs k along direction   2
 The set of symmetries contains only one element for this perturbation.
 symkpt : not enough symmetry to change the number of k points.
 
--------------------------------------------------------------------------------
 
--------------------------------------------------------------------------------
 
 Initialisation of the first-order wave-functions :
  ireadwf=   0

--- !BeginCycle
iteration_state: {dtset: 1, }
solver: {iscf: 7, nstep: 2000, nline: 4, wfoptalg: 0, }
tolerances: {tolwfr: 1.00E-20, }
...
 
     iter   2DEtotal(Ha)        deltaE(Ha) residm    vres2
-ETOT  1  -136.09929657019     -1.361E+02 2.857E-01 0.000E+00
 ETOT  2  -136.82557054685     -7.263E-01 9.460E-03 0.000E+00
 ETOT  3  -136.88129264046     -5.572E-02 2.104E-03 0.000E+00
 ETOT  4  -136.88865367245     -7.361E-03 1.534E-04 0.000E+00
 ETOT  5  -136.88976661004     -1.113E-03 4.162E-05 0.000E+00
 ETOT  6  -136.88994371267     -1.771E-04 4.755E-06 0.000E+00
 ETOT  7  -136.88997282777     -2.912E-05 1.398E-06 0.000E+00
 ETOT  8  -136.88997772641     -4.899E-06 1.627E-07 0.000E+00
 ETOT  9  -136.88997856523     -8.388E-07 4.899E-08 0.000E+00
 ETOT 10  -136.88997871100     -1.458E-07 5.727E-09 0.000E+00
 ETOT 11  -136.88997873664     -2.564E-08 1.745E-09 0.000E+00
 ETOT 12  -136.88997874120     -4.557E-09 2.044E-10 0.000E+00
 ETOT 13  -136.88997874202     -8.172E-10 6.265E-11 0.000E+00
 ETOT 14  -136.88997874216     -1.476E-10 7.352E-12 0.000E+00
 ETOT 15  -136.88997874219     -2.694E-11 2.261E-12 0.000E+00
 ETOT 16  -136.88997874220     -4.917E-12 2.657E-13 0.000E+00
 ETOT 17  -136.88997874220     -7.674E-13 8.187E-14 0.000E+00
 ETOT 18  -136.88997874220     -2.558E-13 9.632E-15 0.000E+00
 ETOT 19  -136.88997874220      2.842E-14 2.973E-15 0.000E+00
 ETOT 20  -136.88997874220      0.000E+00 3.501E-16 0.000E+00
 ETOT 21  -136.88997874220     -1.421E-13 1.082E-16 0.000E+00
 ETOT 22  -136.88997874220      8.527E-14 1.275E-17 0.000E+00
 ETOT 23  -136.88997874220     -5.684E-14 3.945E-18 0.000E+00
 ETOT 24  -136.88997874220      2.842E-14 4.653E-19 0.000E+00
 ETOT 25  -136.88997874220     -2.842E-14 1.440E-19 0.000E+00
 ETOT 26  -136.88997874220      2.842E-14 1.700E-20 0.000E+00
 ETOT 27  -136.88997874220      5.684E-14 9.906E-21 0.000E+00
 
 At SCF step   27   max residual=  9.91E-21 < tolwfr=  1.00E-20 =>converged.
================================================================================
 
 ----iterations are completed or convergence reached----
 
 dfpt_looppert: DFPT cycle converged with prtwf=-1. Will skip output of the 1st-order WFK file.
 dfpt_looppert : ek2=    1.3038225817E+02
          f-sum rule ratio=    1.1905176984E+00
 prteigrs : about to open file /scratch/users/j/a/jabreu/flow_simple_11atoms/flow/w394/t1/tmpdata/tmp_1WF1_EIG
 Expectation of eigenvalue derivatives (hartree) for nkpt=   2  k points:
  (in case of degenerate eigenvalues, averaged derivative)
 kpt#   1, nband= 99, wtk=  0.50000, kpt=  0.0278  0.0000  0.0000 (reduced coord)
   0.00000   -0.00000    0.00000    0.00000    0.00000   -0.00000    0.00000   -0.00000
   0.00000   -0.00000    0.00000   -0.00000    0.00000   -0.00000   -0.00000   -0.00000
  -0.00000    0.00000    0.00000    0.00000    0.00000    0.00000   -0.00000    0.00000
   0.00000    0.00000   -0.00000   -0.00000    0.00000   -0.00000   -0.00000   -0.00000
  -0.00000   -0.00000    0.00000   -0.00000    0.00000    0.00000   -0.00000   -0.00000
  -0.00000    0.00000    0.00000   -0.00000    0.00000   -0.00000    0.00239    0.00033
   0.00357   -0.00506    0.00527   -0.01002    0.00203    0.00555    0.00256   -0.00271
   0.01625   -0.01508    0.00072    0.02624   -0.00533    0.00831   -0.01358   -0.00032
  -0.00514   -0.00517   -0.00205   -0.00297   -0.00431   -0.00058    0.00327   -0.00788
   0.00366    0.00108   -0.00278   -0.00232    0.00023   -0.00430   -0.00266    0.00915
  -0.00685    0.01285   -0.00018    0.00917   -0.02167    0.00060   -0.02460    0.01081
  -0.07897    0.00170    0.06066    0.01887    0.03305    0.01220    0.00305    0.00975
   0.00209   -0.00222   -0.00716
 prteigrs : prtvol=0 or 1, do not print more k-points.
 
 
 Eight components of 2nd-order total energy (hartree) are
 1,2,3: 0th-order hamiltonian combined with 1st-order wavefunctions
     kin0=   1.68433275E+02 eigvalue=   1.30991101E+01  local=  -6.95076172E+01
 4,5,6: 1st-order hamiltonian combined with 1st and 0th-order wfs
     kin1=  -1.55222386E+02  Hartree=   0.00000000E+00     xc=   0.00000000E+00
 7,8,9: eventually, occupation + non-local contributions
    edocc=   2.07472243E+01     enl0=   4.11798694E+00   enl1=  -1.18557572E+02
 1-9 gives the relaxation energy (to be shifted if some occ is /=2.0)
   erelax=  -1.36889979E+02
  No Ewald or frozen-wf contrib.: the relaxation energy is the total one
 2DEtotal=   -0.1368899787E+03 Ha. Also 2DEtotal=   -0.372496575814E+04 eV
    (  non-var. 2DEtotal :   -1.3688997874E+02 Ha)
 
--------------------------------------------------------------------------------
 Perturbation wavevector (in red.coord.)   0.000000  0.000000  0.000000
 Perturbation : derivative vs k along direction   3
 The set of symmetries contains only one element for this perturbation.
 symkpt : not enough symmetry to change the number of k points.
 
--------------------------------------------------------------------------------
 
--------------------------------------------------------------------------------
 
 Initialisation of the first-order wave-functions :
  ireadwf=   0

--- !BeginCycle
iteration_state: {dtset: 1, }
solver: {iscf: 7, nstep: 2000, nline: 4, wfoptalg: 0, }
tolerances: {tolwfr: 1.00E-20, }
...
 
     iter   2DEtotal(Ha)        deltaE(Ha) residm    vres2
-ETOT  1  -107.44232645534     -1.074E+02 1.311E-01 0.000E+00
 ETOT  2  -107.91845508457     -4.761E-01 7.658E-03 0.000E+00
 ETOT  3  -107.95525271248     -3.680E-02 7.666E-04 0.000E+00
 ETOT  4  -107.95981735668     -4.565E-03 9.557E-05 0.000E+00
 ETOT  5  -107.96046774847     -6.504E-04 1.475E-05 0.000E+00
 ETOT  6  -107.96056661366     -9.887E-05 2.717E-06 0.000E+00
 ETOT  7  -107.96058241451     -1.580E-05 4.576E-07 0.000E+00
 ETOT  8  -107.96058501557     -2.601E-06 9.303E-08 0.000E+00
 ETOT  9  -107.96058545340     -4.378E-07 1.601E-08 0.000E+00
 ETOT 10  -107.96058552829     -7.489E-08 3.283E-09 0.000E+00
 ETOT 11  -107.96058554125     -1.296E-08 5.706E-10 0.000E+00
 ETOT 12  -107.96058554351     -2.261E-09 1.170E-10 0.000E+00
 ETOT 13  -107.96058554391     -3.976E-10 2.047E-11 0.000E+00
 ETOT 14  -107.96058554398     -7.051E-11 4.195E-12 0.000E+00
 ETOT 15  -107.96058554399     -1.270E-11 7.371E-13 0.000E+00
 ETOT 16  -107.96058554399     -2.103E-12 1.509E-13 0.000E+00
 ETOT 17  -107.96058554399     -3.695E-13 2.662E-14 0.000E+00
 ETOT 18  -107.96058554399     -1.421E-13 5.445E-15 0.000E+00
 ETOT 19  -107.96058554399     -5.684E-14 9.639E-16 0.000E+00
 ETOT 20  -107.96058554399      0.000E+00 1.970E-16 0.000E+00
 ETOT 21  -107.96058554399      1.137E-13 3.498E-17 0.000E+00
 ETOT 22  -107.96058554399     -1.137E-13 7.147E-18 0.000E+00
 ETOT 23  -107.96058554399      2.842E-14 1.272E-18 0.000E+00
 ETOT 24  -107.96058554399      4.263E-14 2.599E-19 0.000E+00
 ETOT 25  -107.96058554399      0.000E+00 4.635E-20 0.000E+00
 ETOT 26  -107.96058554399     -1.421E-14 9.940E-21 0.000E+00
 
 At SCF step   26   max residual=  9.94E-21 < tolwfr=  1.00E-20 =>converged.
================================================================================
 
 ----iterations are completed or convergence reached----
 
 dfpt_looppert: DFPT cycle converged with prtwf=-1. Will skip output of the 1st-order WFK file.
 dfpt_looppert : ek2=    1.0023017812E+02
          f-sum rule ratio=    1.2420392078E+00
 prteigrs : about to open file /scratch/users/j/a/jabreu/flow_simple_11atoms/flow/w394/t1/tmpdata/tmp_1WF1_EIG
 Expectation of eigenvalue derivatives (hartree) for nkpt=   2  k points:
  (in case of degenerate eigenvalues, averaged derivative)
 kpt#   1, nband= 99, wtk=  0.50000, kpt=  0.0278  0.0000  0.0000 (reduced coord)
  -0.00000    0.00000    0.00000    0.00000   -0.00000    0.00000   -0.00000    0.00000
  -0.00000    0.00000   -0.00000    0.00000   -0.00000   -0.00000   -0.00000   -0.00000
   0.00000    0.00000   -0.00000    0.00000    0.00000   -0.00000    0.00000   -0.00000
   0.00000   -0.00000   -0.00000    0.00000   -0.00000    0.00000    0.00000   -0.00000
   0.00000   -0.00000   -0.00000    0.00000   -0.00000   -0.00000    0.00000    0.00000
  -0.00000    0.00000   -0.00000    0.00000   -0.00000    0.00000   -0.00112    0.00273
  -0.00183    0.00137   -0.00036    0.00033   -0.00175   -0.00320   -0.00327   -0.02198
   0.01810   -0.00500    0.00822    0.00432    0.00064   -0.00007    0.00474    0.00029
  -0.00045    0.00082    0.00174    0.00310   -0.00129    0.00122   -0.00038    0.00184
  -0.00033   -0.00096    0.00002   -0.00190   -0.00057    0.00187    0.00109    0.00024
  -0.01002    0.01228    0.00067   -0.00289    0.00657    0.00225    0.00126    0.00656
   0.02949   -0.00309   -0.03182   -0.00192   -0.02501   -0.00863    0.00162   -0.01014
  -0.00639   -0.00372    0.00046
 prteigrs : prtvol=0 or 1, do not print more k-points.
 
 
 Eight components of 2nd-order total energy (hartree) are
 1,2,3: 0th-order hamiltonian combined with 1st-order wavefunctions
     kin0=   1.24042349E+02 eigvalue=   1.08917342E+01  local=  -5.08699741E+01
 4,5,6: 1st-order hamiltonian combined with 1st and 0th-order wfs
     kin1=  -1.24489811E+02  Hartree=   0.00000000E+00     xc=   0.00000000E+00
 7,8,9: eventually, occupation + non-local contributions
    edocc=   1.96564457E+01     enl0=   4.24003062E+00   enl1=  -9.14313601E+01
 1-9 gives the relaxation energy (to be shifted if some occ is /=2.0)
   erelax=  -1.07960586E+02
  No Ewald or frozen-wf contrib.: the relaxation energy is the total one
 2DEtotal=   -0.1079605855E+03 Ha. Also 2DEtotal=   -0.293775693499E+04 eV
    (  non-var. 2DEtotal :   -1.0796058554E+02 Ha)
 
 CALCULATION OF EFFECTIVE MASSES
 NOTE : Additional infos (eff. mass eigenvalues, eigenvectors and, if degenerate, average mass) are available in stdout.

 K-point ( 0.028, 0.000, 0.000) | band =    90
 Effective mass tensor:
             -1.1844900039             -0.0459483216             -0.1044628182
             -0.0459483216             -1.7895442011             -0.0022553652
             -0.1044628182             -0.0022553652             -0.0776770958
 Effective mass tensor eigenvalues:
             -1.7930739177             -1.1907357707             -0.0679016124
 Angular average effective mass 1/(<1/m>)=  -0.1860498675
 Angular average effective mass for Frohlich model (<m**0.5>)**2=  -0.3481853347
 Effective masses along directions: (cart. coord. / red. coord. -> eff. mass)
    1:   1.000000  0.000000  0.000000 /   0.876928 -0.480622  0.000000 ->  -1.0429756371
    2:   0.000000  1.000000  0.000000 /   0.000000  1.000000  0.000000 ->  -1.7877146278
    3:   0.000000  0.000000  1.000000 /   0.156482  0.156482  0.975206 ->  -0.0684624805
    4:   0.577350  0.577350  0.577350 /   0.725004  0.280869  0.628873 ->  -0.2217200117
    5:   0.000000  0.707107  0.707107 /   0.113267  0.699207  0.705889 ->  -0.1316198473
    6:   0.707107  0.000000  0.707107 /   0.732641 -0.243682  0.635497 ->  -0.1539903140
    7:   0.707107  0.707107  0.000000 /   0.960851  0.277065  0.000000 ->  -1.3585286390

 K-point ( 0.000, 0.000, 0.000) | band =    91
 Effective mass tensor:
              0.0706447064             -0.0001717386              0.0004137978
             -0.0001717386              0.0704195272              0.0007658343
              0.0004137978              0.0007658343              0.0404256111
 Effective mass tensor eigenvalues:
              0.0404002913              0.0703520818              0.0707374716
 Angular average effective mass 1/(<1/m>)=   0.0564936683
 Angular average effective mass for Frohlich model (<m**0.5>)**2=   0.0577744790
 Effective masses along directions: (cart. coord. / red. coord. -> eff. mass)
    1:   1.000000  0.000000  0.000000 /   0.876928 -0.480622  0.000000 ->   0.0706400127
    2:   0.000000  1.000000  0.000000 /   0.000000  1.000000  0.000000 ->   0.0704045625
    3:   0.000000  0.000000  1.000000 /   0.156482  0.156482  0.975206 ->   0.0404148366
    4:   0.577350  0.577350  0.577350 /   0.725004  0.280869  0.628873 ->   0.0573115817
    5:   0.000000  0.707107  0.707107 /   0.113267  0.699207  0.705889 ->   0.0520723234
    6:   0.707107  0.000000  0.707107 /   0.732641 -0.243682  0.635497 ->   0.0518020711
    7:   0.707107  0.707107  0.000000 /   0.960851  0.277065  0.000000 ->   0.0703429712

 END OF EFFECTIVE MASSES SECTION

================================================================================
 
 ---- first-order wavefunction calculations are completed ----
 
 
 Total localisation tensor (bohr^2) in cartesian coordinates
  WARNING : still subject to testing - especially symmetries.
      direction              matrix element
   alpha     beta       real part   imaginary part
     1        1       8.7448151890    0.0000000000
     1        2      -3.3369977473    0.0000000000
     1        3       0.4153215055    0.0000000000
     2        1      -3.3369977473    0.0000000000
     2        2       5.0926619482    0.0000000000
     2        3       0.9844533615    0.0000000000
     3        1       0.4153215055    0.0000000000
     3        2       0.9844533615    0.0000000000
     3        3      12.4468087982    0.0000000000
 
 respfn : d/dk was computed, but no 2DTE, so no DDB output.
 
== END DATASET(S) ==============================================================
================================================================================
  
 -outvars: echo values of variables after computation  --------
            acell      1.0000000000E+00  1.0000000000E+00  1.0000000000E+00 Bohr
              amu      6.35460000E+01  2.80855000E+01  7.89600000E+01
             ecut      4.60000000E+01 Hartree
           etotal     -1.0796058554E+02
            fcart      0.0000000000E+00  0.0000000000E+00  0.0000000000E+00
                       0.0000000000E+00  0.0000000000E+00  0.0000000000E+00
                       0.0000000000E+00  0.0000000000E+00  0.0000000000E+00
                       0.0000000000E+00  0.0000000000E+00  0.0000000000E+00
                       0.0000000000E+00  0.0000000000E+00  0.0000000000E+00
                       0.0000000000E+00  0.0000000000E+00  0.0000000000E+00
                       0.0000000000E+00  0.0000000000E+00  0.0000000000E+00
                       0.0000000000E+00  0.0000000000E+00  0.0000000000E+00
                       0.0000000000E+00  0.0000000000E+00  0.0000000000E+00
                       0.0000000000E+00  0.0000000000E+00  0.0000000000E+00
                       0.0000000000E+00  0.0000000000E+00  0.0000000000E+00
                       0.0000000000E+00  0.0000000000E+00  0.0000000000E+00
-          fftalg         512
           irdden           1
           irdwfk           1
           istwfk        0    1
              ixc     -116133
              kpt      2.77777778E-02  0.00000000E+00  0.00000000E+00
                       0.00000000E+00  0.00000000E+00  0.00000000E+00
           kptopt           0
P           mkmem           2
P          mkqmem           2
P          mk1mem           2
            natom          12
            nband          99
           nbdbuf           4
            ngfft          80      80      80
             nkpt           2
            nstep        2000
             nsym           2
           ntypat           3
              occ      2.000000  2.000000  2.000000  2.000000  2.000000  2.000000
                       2.000000  2.000000  2.000000  2.000000  2.000000  2.000000
                       2.000000  2.000000  2.000000  2.000000  2.000000  2.000000
                       2.000000  2.000000  2.000000  2.000000  2.000000  2.000000
                       2.000000  2.000000  2.000000  2.000000  2.000000  2.000000
                       2.000000  2.000000  2.000000  2.000000  2.000000  2.000000
                       2.000000  2.000000  2.000000  2.000000  2.000000  2.000000
                       2.000000  2.000000  2.000000  2.000000  2.000000  2.000000
                       2.000000  2.000000  2.000000  2.000000  2.000000  2.000000
                       2.000000  2.000000  2.000000  2.000000  2.000000  2.000000
                       2.000000  2.000000  2.000000  2.000000  2.000000  2.000000
                       2.000000  2.000000  2.000000  2.000000  2.000000  2.000000
                       2.000000  2.000000  2.000000  2.000000  2.000000  2.000000
                       2.000000  2.000000  2.000000  2.000000  2.000000  2.000000
                       2.000000  2.000000  2.000000  2.000000  2.000000  2.000000
                       0.000000  0.000000  0.000000  0.000000  0.000000  0.000000
                       0.000000  0.000000  0.000000
        optdriver           1
            prtwf          -1
            rfdir           1       1       1
           rfelfd           2
            rprim      1.2482246761E+01  0.0000000000E+00  2.0182370156E+00
                      -6.8412101964E+00  1.0440513745E+01  2.0182370156E+00
                       0.0000000000E+00  0.0000000000E+00  1.2577809972E+01
          spgroup           9
           strten      0.0000000000E+00  0.0000000000E+00  0.0000000000E+00
                       0.0000000000E+00  0.0000000000E+00  0.0000000000E+00
           symrel      1  0  0   0  1  0   0  0  1       0  1  0   1  0  0   0  0  1
            tnons      0.0000000  0.0000000  0.0000000    -0.0000000  0.0000000  0.5000000
           tolwfr      1.00000000E-20
            typat      1  1  1  1  2  2  3  3  3  3  3  3
           useylm           1
              wtk        0.50000    0.50000
           xangst     -1.0866848598E+00  4.2461921984E+00  4.4030032431E+00
                       4.1472235363E+00  1.4182979625E+00  7.7309484285E+00
                       2.3755524357E+00  2.3059862654E+00  4.4006068097E+00
                       6.2681245641E-01  3.2508349966E+00  7.7285519952E+00
                       5.8162390787E+00  6.3137798090E-01  4.2989778525E+00
                      -2.6596336571E+00  5.2109139299E+00  7.6269230379E+00
                       2.0414043942E+00  1.6836525162E+00  6.6630166726E+00
                       2.8941269542E-01  2.6302581599E+00  3.3350714871E+00
                       3.7735386095E+00  7.4454966214E-01  3.3054590584E+00
                      -1.4454200574E+00  3.5643665207E+00  6.6334042439E+00
                       1.8325179960E+00  5.3445331992E+00  7.6081102470E+00
                       3.4659650906E+00  4.4619775116E+00  4.2801650616E+00
            xcart     -2.0535367778E+00  8.0241403626E+00  8.3204702916E+00
                       7.8371166955E+00  2.6801947239E+00  1.4609375277E+01
                       4.4891435178E+00  4.3576825078E+00  8.3159416889E+00
                       1.1845038793E+00  6.1431878469E+00  1.4604846675E+01
                       1.0991098982E+01  1.1931314702E+00  8.1238907925E+00
                      -5.0259792257E+00  9.8472002296E+00  1.4412795778E+01
                       3.8576952315E+00  3.1816421586E+00  1.2591276730E+01
                       5.4691073373E-01  4.9704675810E+00  6.3023717442E+00
                       7.1309545237E+00  1.4069949538E+00  6.2464123639E+00
                      -2.7314480555E+00  6.7356765614E+00  1.2535317350E+01
                       3.4629571460E+00  1.0099704055E+01  1.4377244756E+01
                       6.5497248073E+00  8.4319155079E+00  8.0883397700E+00
             xred      2.5671100000E-01  7.6855800000E-01  4.9700500000E-01
                       7.6855800000E-01  2.5671100000E-01  9.9700500000E-01
                       5.8839900000E-01  4.1738200000E-01  4.9977200000E-01
                       4.1738200000E-01  5.8839900000E-01  9.9977200000E-01
                       9.4317200000E-01  1.1427900000E-01  4.7621200000E-01
                       1.1427900000E-01  9.4317200000E-01  9.7621200000E-01
                       4.7607500000E-01  3.0474000000E-01  8.7578100000E-01
                       3.0474000000E-01  4.7607500000E-01  3.7578100000E-01
                       6.4514800000E-01  1.3476300000E-01  3.7147700000E-01
                       1.3476300000E-01  6.4514800000E-01  8.7147700000E-01
                       8.0761500000E-01  9.6735700000E-01  8.5825200000E-01
                       9.6735700000E-01  8.0761500000E-01  3.5825200000E-01
            znucl       29.00000   14.00000   34.00000
 
================================================================================


- Timing analysis has been suppressed with timopt=0



================================================================================

 Suggested references for the acknowledgment of ABINIT usage.

 The users of ABINIT have little formal obligations with respect to the ABINIT group
 (those specified in the GNU General Public License, http://www.gnu.org/copyleft/gpl.txt).
 However, it is common practice in the scientific literature,
 to acknowledge the efforts of people that have made the research possible.
 In this spirit, please find below suggested citations of work written by ABINIT developers,
 corresponding to implementations inside of ABINIT that you have used in the present run.
 Note also that it will be of great value to readers of publications presenting these results,
 to read papers enabling them to understand the theoretical formalism and details
 of the ABINIT implementation.
 For information on why they are suggested, see also https://docs.abinit.org/theory/acknowledgments.
-
- [1] Precise effective masses from density functional perturbation theory
- J. Laflamme Janssen, Y. Gillet, S. Ponce, A. Martin, M. Torrent, and X. Gonze. Phys. Rev. B 93, 205147 (2016)
- Comment: in case the DFPT prediction of effective masses is used.
- Strong suggestion to cite this paper in your publications.
- DOI and bibtex: see https://docs.abinit.org/theory/bibliography/#laflamme2016
-
- [2] Libxc: A library of exchange and correlation functionals for density functional theory.
- M.A.L. Marques, M.J.T. Oliveira, T. Burnus, Computer Physics Communications 183, 2227 (2012).
- Comment: to be cited when LibXC is used (negative value of ixc)
- Strong suggestion to cite this paper.
- DOI and bibtex: see https://docs.abinit.org/theory/bibliography/#marques2012
-
- [3] The Abinit project: Impact, environment and recent developments.
- Computer Phys. Comm. 248, 107042 (2020).
- X.Gonze, B. Amadon, G. Antonius, F.Arnardi, L.Baguet, J.-M.Beuken,
- J.Bieder, F.Bottin, J.Bouchet, E.Bousquet, N.Brouwer, F.Bruneval,
- G.Brunin, T.Cavignac, J.-B. Charraud, Wei Chen, M.Cote, S.Cottenier,
- J.Denier, G.Geneste, Ph.Ghosez, M.Giantomassi, Y.Gillet, O.Gingras,
- D.R.Hamann, G.Hautier, Xu He, N.Helbig, N.Holzwarth, Y.Jia, F.Jollet,
- W.Lafargue-Dit-Hauret, K.Lejaeghere, M.A.L.Marques, A.Martin, C.Martins,
- H.P.C. Miranda, F.Naccarato, K. Persson, G.Petretto, V.Planes, Y.Pouillon,
- S.Prokhorenko, F.Ricci, G.-M.Rignanese, A.H.Romero, M.M.Schmitt, M.Torrent,
- M.J.van Setten, B.Van Troeye, M.J.Verstraete, G.Zerah and J.W.Zwanzig
- Comment: the fifth generic paper describing the ABINIT project.
- Note that a version of this paper, that is not formatted for Computer Phys. Comm. 
- is available at https://www.abinit.org/sites/default/files/ABINIT20.pdf .
- The licence allows the authors to put it on the Web.
- DOI and bibtex: see https://docs.abinit.org/theory/bibliography/#gonze2020
-
- [4] First-principles responses of solids to atomic displacements and homogeneous electric fields:,
- implementation of a conjugate-gradient algorithm. X. Gonze, Phys. Rev. B55, 10337 (1997).
- Comment: Non-vanishing rfphon and/or rfelfd, in the norm-conserving case.
- DOI and bibtex: see https://docs.abinit.org/theory/bibliography/#gonze1997
-
- [5] Dynamical matrices, Born effective charges, dielectric permittivity tensors, and ,
- interatomic force constants from density-functional perturbation theory,
- X. Gonze and C. Lee, Phys. Rev. B55, 10355 (1997).
- Comment: Non-vanishing rfphon and/or rfelfd, in the norm-conserving case.
- DOI and bibtex: see https://docs.abinit.org/theory/bibliography/#gonze1997a
-
- [6] Optimized norm-conserving Vanderbilt pseudopotentials.
- D.R. Hamann, Phys. Rev. B 88, 085117 (2013).
- Comment: Some pseudopotential generated using the ONCVPSP code were used.
- DOI and bibtex: see https://docs.abinit.org/theory/bibliography/#hamann2013
-
- [7] ABINIT: Overview, and focus on selected capabilities
- J. Chem. Phys. 152, 124102 (2020).
- A. Romero, D.C. Allan, B. Amadon, G. Antonius, T. Applencourt, L.Baguet,
- J.Bieder, F.Bottin, J.Bouchet, E.Bousquet, F.Bruneval,
- G.Brunin, D.Caliste, M.Cote,
- J.Denier, C. Dreyer, Ph.Ghosez, M.Giantomassi, Y.Gillet, O.Gingras,
- D.R.Hamann, G.Hautier, F.Jollet, G. Jomard,
- A.Martin, 
- H.P.C. Miranda, F.Naccarato, G.Petretto, N.A. Pike, V.Planes,
- S.Prokhorenko, T. Rangel, F.Ricci, G.-M.Rignanese, M.Royo, M.Stengel, M.Torrent,
- M.J.van Setten, B.Van Troeye, M.J.Verstraete, J.Wiktor, J.W.Zwanziger, and X.Gonze.
- Comment: a global overview of ABINIT, with focus on selected capabilities .
- Note that a version of this paper, that is not formatted for J. Chem. Phys 
- is available at https://www.abinit.org/sites/default/files/ABINIT20_JPC.pdf .
- The licence allows the authors to put it on the Web.
- DOI and bibtex: see https://docs.abinit.org/theory/bibliography/#romero2020
-
- [8] Recent developments in the ABINIT software package.
- Computer Phys. Comm. 205, 106 (2016).
- X.Gonze, F.Jollet, F.Abreu Araujo, D.Adams, B.Amadon, T.Applencourt,
- C.Audouze, J.-M.Beuken, J.Bieder, A.Bokhanchuk, E.Bousquet, F.Bruneval
- D.Caliste, M.Cote, F.Dahm, F.Da Pieve, M.Delaveau, M.Di Gennaro,
- B.Dorado, C.Espejo, G.Geneste, L.Genovese, A.Gerossier, M.Giantomassi,
- Y.Gillet, D.R.Hamann, L.He, G.Jomard, J.Laflamme Janssen, S.Le Roux,
- A.Levitt, A.Lherbier, F.Liu, I.Lukacevic, A.Martin, C.Martins,
- M.J.T.Oliveira, S.Ponce, Y.Pouillon, T.Rangel, G.-M.Rignanese,
- A.H.Romero, B.Rousseau, O.Rubel, A.A.Shukri, M.Stankovski, M.Torrent,
- M.J.Van Setten, B.Van Troeye, M.J.Verstraete, D.Waroquier, J.Wiktor,
- B.Xu, A.Zhou, J.W.Zwanziger.
- Comment: the fourth generic paper describing the ABINIT project.
- Note that a version of this paper, that is not formatted for Computer Phys. Comm. 
- is available at https://www.abinit.org/sites/default/files/ABINIT16.pdf .
- The licence allows the authors to put it on the Web.
- DOI and bibtex: see https://docs.abinit.org/theory/bibliography/#gonze2016
-
- Proc.   0 individual time (sec): cpu=       2358.6  wall=       2453.3
 
================================================================================
 
 Calculation completed.
.Delivered   2 WARNINGs and   5 COMMENTs to log file.
+Overall time at end (sec) : cpu=       2358.6  wall=       2453.3
