
.Version 9.5.1 of ABINIT 
.(MPI version, prepared for a x86_64_linux_intel19.1 computer) 

.Copyright (C) 1998-2021 ABINIT group . 
 ABINIT comes with ABSOLUTELY NO WARRANTY.
 It is free software, and you are welcome to redistribute it
 under certain conditions (GNU General Public License,
 see ~abinit/COPYING or http://www.gnu.org/copyleft/gpl.txt).

 ABINIT is a project of the Universite Catholique de Louvain,
 Corning Inc. and other collaborators, see ~abinit/doc/developers/contributors.txt .
 Please read https://docs.abinit.org/theory/acknowledgments for suggested
 acknowledgments of the ABINIT effort.
 For more information, see https://www.abinit.org .

.Starting date : Tue 27 Apr 2021.
- ( at 18h26 )
  
- input  file    -> /scratch/users/j/a/jabreu/flow_simple_4atoms/flow/w155/t1/run.abi
- output file    -> /scratch/users/j/a/jabreu/flow_simple_4atoms/flow/w155/t1/run.abo
- root for input  files -> /scratch/users/j/a/jabreu/flow_simple_4atoms/flow/w155/t1/indata/in
- root for output files -> /scratch/users/j/a/jabreu/flow_simple_4atoms/flow/w155/t1/outdata/out
 
 
 Symmetries : space group P6_3/m m c (#194); Bravais hP (primitive hexag.)
================================================================================
 Values of the parameters that define the memory need of the present run (RF).
     intxc =       0      iscf =       7    lmnmax =      18     lnmax =       6
     mgfft =      48  mpssoang =       3    mqgrid =    3001     natom =       4
  nloc_mem =       1    nspden =       1   nspinor =       1    nsppol =       1
      nsym =      24    n1xccc =    2501    ntypat =       1    occopt =       1
   xclevel =       2
-    mband =          17        mffmem =           1         mkmem =           2
-   mkqmem =           2        mk1mem =           2           mpw =        2148
      nfft =       43200          nkpt =           2
================================================================================
P This job should need less than                      24.711 Mbytes of memory.
  Rough estimation (10% accuracy) of disk space for files :
_ WF disk file :      1.116 Mbytes ; DEN or POT disk file :      0.332 Mbytes.
================================================================================
 
--------------------------------------------------------------------------------
------------- Echo of variables that govern the present computation ------------
--------------------------------------------------------------------------------
-
- outvars: echo of selected default values                                      
-   iomode0 =  0 , fftalg0 =512 , wfoptalg0 =  0
-
- outvars: echo of global parameters not present in the input file              
-  max_nthreads =    0
-
 -outvars: echo values of preprocessed input variables --------
            acell      1.0000000000E+00  1.0000000000E+00  1.0000000000E+00 Bohr
              amu      2.80855000E+01
             ecut      1.90000000E+01 Hartree
-          fftalg         512
           irdden           1
           irdwfk           1
           istwfk        1    1
              ixc     -116133
              kpt      0.00000000E+00  0.00000000E+00  0.00000000E+00
                       5.00000000E-01  0.00000000E+00  0.00000000E+00
           kptopt           0
P           mkmem           2
P          mkqmem           2
P          mk1mem           2
            natom           4
            nband          17
           nbdbuf           4
            ngfft          30      30      48
             nkpt           2
            nstep         100
             nsym          24
           ntypat           1
              occ      2.000000  2.000000  2.000000  2.000000  2.000000  2.000000
                       2.000000  2.000000  0.000000  0.000000  0.000000  0.000000
                       0.000000  0.000000  0.000000  0.000000  0.000000
        optdriver           1
            prtwf          -1
            rfdir           1       1       1
           rfelfd           2
            rprim      7.2253164181E+00  0.0000000000E+00  0.0000000000E+00
                      -3.6126582090E+00  6.2573075684E+00  0.0000000000E+00
                       0.0000000000E+00  0.0000000000E+00  1.1945151926E+01
          spgroup         194
           symrel      1  0  0   0  1  0   0  0  1      -1  0  0   0 -1  0   0  0 -1
                       0  1  0   1  0  0   0  0  1       0 -1  0  -1  0  0   0  0 -1
                       1  1  0  -1  0  0   0  0  1      -1 -1  0   1  0  0   0  0 -1
                      -1  0  0   1  1  0   0  0  1       1  0  0  -1 -1  0   0  0 -1
                       0  1  0  -1 -1  0   0  0  1       0 -1  0   1  1  0   0  0 -1
                      -1 -1  0   0  1  0   0  0  1       1  1  0   0 -1  0   0  0 -1
                      -1  0  0   0 -1  0   0  0  1       1  0  0   0  1  0   0  0 -1
                       0 -1  0  -1  0  0   0  0  1       0  1  0   1  0  0   0  0 -1
                      -1 -1  0   1  0  0   0  0  1       1  1  0  -1  0  0   0  0 -1
                       1  0  0  -1 -1  0   0  0  1      -1  0  0   1  1  0   0  0 -1
                       0 -1  0   1  1  0   0  0  1       0  1  0  -1 -1  0   0  0 -1
                       1  1  0   0 -1  0   0  0  1      -1 -1  0   0  1  0   0  0 -1
            tnons      0.0000000  0.0000000  0.0000000    -0.0000000 -0.0000000  0.0000000
                       0.0000000  0.0000000  0.5000000    -0.0000000 -0.0000000  0.5000000
                       0.0000000  0.0000000  0.5000000    -0.0000000 -0.0000000  0.5000000
                      -0.0000000  0.0000000  0.0000000     0.0000000 -0.0000000  0.0000000
                      -0.0000000  0.0000000  0.0000000     0.0000000 -0.0000000  0.0000000
                      -0.0000000 -0.0000000  0.5000000     0.0000000  0.0000000  0.5000000
                      -0.0000000 -0.0000000  0.5000000     0.0000000  0.0000000  0.5000000
                      -0.0000000 -0.0000000  0.0000000     0.0000000  0.0000000  0.0000000
                      -0.0000000 -0.0000000  0.0000000     0.0000000  0.0000000  0.0000000
                       0.0000000 -0.0000000  0.5000000    -0.0000000  0.0000000  0.5000000
                       0.0000000 -0.0000000  0.5000000    -0.0000000  0.0000000  0.5000000
                       0.0000000  0.0000000  0.0000000    -0.0000000 -0.0000000  0.0000000
           tolwfr      1.00000000E-20
            typat      1  1  1  1
           useylm           1
              wtk        0.50000    0.50000
           xangst      1.9117363867E+00  1.1037415174E+00  5.9229359278E+00
                       1.7639241746E-11  2.2074830349E+00  2.7623848516E+00
                       1.9117363867E+00  1.1037415174E+00  3.5587173008E+00
                       1.7639241746E-11  2.2074830349E+00  3.9816622458E-01
            xcart      3.6126582091E+00  2.0857691895E+00  1.1192726806E+01
                       3.3333336091E-11  4.1715383789E+00  5.2201508432E+00
                       3.6126582091E+00  2.0857691895E+00  6.7250010828E+00
                       3.3333336091E-11  4.1715383789E+00  7.5242511982E-01
             xred      6.6666666667E-01  3.3333333333E-01  9.3701000000E-01
                       3.3333333333E-01  6.6666666667E-01  4.3701000000E-01
                       6.6666666667E-01  3.3333333333E-01  5.6299000000E-01
                       3.3333333333E-01  6.6666666667E-01  6.2990000000E-02
            znucl       14.00000
 
================================================================================
 
 chkinp: Checking input parameters for consistency.
 
================================================================================
== DATASET  1 ==================================================================
-   mpi_nproc: 1, omp_nthreads: -1 (-1 if OMP is not activated)
 

--- !DatasetInfo
iteration_state: {dtset: 1, }
dimensions: {natom: 4, nkpt: 2, mband: 17, nsppol: 1, nspinor: 1, nspden: 1, mpw: 2148, }
cutoff_energies: {ecut:  19.0, pawecutdg:  -1.0, }
electrons: {nelect:   1.60000000E+01, charge:   0.00000000E+00, occopt:   1.00000000E+00, tsmear:   1.00000000E-02, }
meta: {optdriver: 1, rfelfd: 2, }
...

 Real(R)+Recip(G) space primitive vectors, cartesian coordinates (Bohr,Bohr^-1):
 R(1)=  7.2253164  0.0000000  0.0000000  G(1)=  0.1384022  0.0799066  0.0000000
 R(2)= -3.6126582  6.2573076  0.0000000  G(2)=  0.0000000  0.1598131  0.0000000
 R(3)=  0.0000000  0.0000000 11.9451519  G(3)=  0.0000000  0.0000000  0.0837160
 Unit cell volume ucvol=  5.4005259E+02 bohr^3
 Angles (23,13,12)=  9.00000000E+01  9.00000000E+01  1.20000000E+02 degrees
 
 getcut: wavevector=  0.0000  0.0000  0.0000  ngfft=  30  30  48
         ecut(hartree)=     19.000   => boxcut(ratio)=   2.04789
 
--- Pseudopotential description ------------------------------------------------
- pspini: atom type   1  psp file is /scratch/users/j/a/jabreu/pseudos/PBEsol/Si.psp8
- pspatm: opening atomic psp file    /scratch/users/j/a/jabreu/pseudos/PBEsol/Si.psp8
- Si    ONCVPSP-3.3.0  r_core=   1.60303   1.72197   1.91712
- 14.00000   4.00000    180112                znucl, zion, pspdat
    8 -116133    2    4       600   0.00000   pspcod,pspxc,lmax,lloc,mmax,r2well
    5.99000000000000    4.00000000000000    0.00000000000000   rchrg,fchrg,qchrg
     nproj     2     2     2
     extension_switch     1
  pspatm : epsatm=    7.86468782
         --- l  ekb(1:nproj) -->
             0    5.384426    0.843824
             1    2.663259    0.615854
             2   -2.267219   -0.458043
 pspatm: atomic psp has been read  and splines computed
 
   5.03340020E+02                                ecore*ucvol(ha*bohr**3)
--------------------------------------------------------------------------------
 
-inwffil : will read wavefunctions from disk file /scratch/users/j/a/jabreu/flow_simple_4atoms/flow/w155/t1/indata/in_WFK
 
 ==>  initialize data related to q vector <== 
 
 The list of irreducible perturbations for this q vector is:
    1)    idir= 1    ipert=   5
    2)    idir= 2    ipert=   5
    3)    idir= 3    ipert=   5
 
================================================================================
 
--------------------------------------------------------------------------------
 Perturbation wavevector (in red.coord.)   0.000000  0.000000  0.000000
 Perturbation : derivative vs k along direction   1
 
 dfpt_looppert : COMMENT -
  In a d/dk calculation, iscf is set to -3 automatically.
 The set of symmetries contains only one element for this perturbation.
 symkpt : not enough symmetry to change the number of k points.
 
--------------------------------------------------------------------------------
 
-inwffil : will read wavefunctions from disk file /scratch/users/j/a/jabreu/flow_simple_4atoms/flow/w155/t1/indata/in_WFK
--------------------------------------------------------------------------------
 
 Initialisation of the first-order wave-functions :
  ireadwf=   0

--- !BeginCycle
iteration_state: {dtset: 1, }
solver: {iscf: 7, nstep: 100, nline: 4, wfoptalg: 0, }
tolerances: {tolwfr: 1.00E-20, }
...
 
     iter   2DEtotal(Ha)        deltaE(Ha) residm    vres2
-ETOT  1  -30.547761430449     -3.055E+01 1.704E-02 0.000E+00
 ETOT  2  -30.548563081144     -8.017E-04 1.079E-05 0.000E+00
 ETOT  3  -30.548563329855     -2.487E-07 2.074E-08 0.000E+00
 ETOT  4  -30.548563330016     -1.605E-10 2.877E-11 0.000E+00
 ETOT  5  -30.548563330016     -8.527E-14 7.709E-14 0.000E+00
 ETOT  6  -30.548563330016     -4.263E-14 1.153E-16 0.000E+00
 ETOT  7  -30.548563330016      3.908E-14 3.674E-19 0.000E+00
 ETOT  8  -30.548563330016      0.000E+00 9.248E-21 0.000E+00
 
 At SCF step    8   max residual=  9.25E-21 < tolwfr=  1.00E-20 =>converged.
================================================================================
 
 ----iterations are completed or convergence reached----
 
 dfpt_looppert: DFPT cycle converged with prtwf=-1. Will skip output of the 1st-order WFK file.
 dfpt_looppert : ek2=    3.2265225882E+01
          f-sum rule ratio=    2.0232512615E+00
 prteigrs : about to open file /scratch/users/j/a/jabreu/flow_simple_4atoms/flow/w155/t1/tmpdata/tmp_1WF1_EIG
 Expectation of eigenvalue derivatives (hartree) for nkpt=   2  k points:
  (in case of degenerate eigenvalues, averaged derivative)
 kpt#   1, nband= 17, wtk=  0.50000, kpt=  0.0000  0.0000  0.0000 (reduced coord)
  -0.00000    0.00000    0.00000    0.00000    0.00000   -0.00000    0.00000    0.00000
   0.00000    0.00000    0.00000    0.00000    0.00000    0.00000    0.00000   -0.00000
  -0.00000
 prteigrs : prtvol=0 or 1, do not print more k-points.
 
 
 Eight components of 2nd-order total energy (hartree) are
 1,2,3: 0th-order hamiltonian combined with 1st-order wavefunctions
     kin0=   3.00738115E+00 eigvalue=  -7.07920148E-02  local=  -1.40007136E+00
 4,5,6: 1st-order hamiltonian combined with 1st and 0th-order wfs
     kin1=  -6.52806590E+01  Hartree=   0.00000000E+00     xc=   0.00000000E+00
 7,8,9: eventually, occupation + non-local contributions
    edocc=   2.86358057E+01     enl0=   3.76239839E-01   enl1=   4.18353231E+00
 1-9 gives the relaxation energy (to be shifted if some occ is /=2.0)
   erelax=  -3.05485633E+01
  No Ewald or frozen-wf contrib.: the relaxation energy is the total one
 2DEtotal=   -0.3054856333E+02 Ha. Also 2DEtotal=   -0.831268683145E+03 eV
    (  non-var. 2DEtotal :   -3.0548563330E+01 Ha)
 
--------------------------------------------------------------------------------
 Perturbation wavevector (in red.coord.)   0.000000  0.000000  0.000000
 Perturbation : derivative vs k along direction   2
 The set of symmetries contains only one element for this perturbation.
 symkpt : not enough symmetry to change the number of k points.
 
--------------------------------------------------------------------------------
 
-inwffil : will read wavefunctions from disk file /scratch/users/j/a/jabreu/flow_simple_4atoms/flow/w155/t1/indata/in_WFK
--------------------------------------------------------------------------------
 
 Initialisation of the first-order wave-functions :
  ireadwf=   0

--- !BeginCycle
iteration_state: {dtset: 1, }
solver: {iscf: 7, nstep: 100, nline: 4, wfoptalg: 0, }
tolerances: {tolwfr: 1.00E-20, }
...
 
     iter   2DEtotal(Ha)        deltaE(Ha) residm    vres2
-ETOT  1  -42.752096723122     -4.275E+01 1.313E-02 0.000E+00
 ETOT  2  -42.752787842027     -6.911E-04 9.037E-06 0.000E+00
 ETOT  3  -42.752788044939     -2.029E-07 1.791E-08 0.000E+00
 ETOT  4  -42.752788045183     -2.442E-10 2.498E-11 0.000E+00
 ETOT  5  -42.752788045183      0.000E+00 7.185E-14 0.000E+00
 ETOT  6  -42.752788045183      0.000E+00 1.017E-16 0.000E+00
 ETOT  7  -42.752788045183     -4.263E-14 3.221E-19 0.000E+00
 ETOT  8  -42.752788045183      0.000E+00 9.993E-21 0.000E+00
 
 At SCF step    8   max residual=  9.99E-21 < tolwfr=  1.00E-20 =>converged.
================================================================================
 
 ----iterations are completed or convergence reached----
 
 dfpt_looppert: DFPT cycle converged with prtwf=-1. Will skip output of the 1st-order WFK file.
 dfpt_looppert : ek2=    3.2265225883E+01
          f-sum rule ratio=    2.8318786145E+00
 prteigrs : about to open file /scratch/users/j/a/jabreu/flow_simple_4atoms/flow/w155/t1/tmpdata/tmp_1WF1_EIG
 Expectation of eigenvalue derivatives (hartree) for nkpt=   2  k points:
  (in case of degenerate eigenvalues, averaged derivative)
 kpt#   1, nband= 17, wtk=  0.50000, kpt=  0.0000  0.0000  0.0000 (reduced coord)
   0.00000    0.00000    0.00000    0.00000    0.00000   -0.00000   -0.00000   -0.00000
   0.00000   -0.00000   -0.00000    0.00000    0.00000   -0.00000   -0.00000   -0.00000
  -0.00000
 prteigrs : prtvol=0 or 1, do not print more k-points.
 
 
 Eight components of 2nd-order total energy (hartree) are
 1,2,3: 0th-order hamiltonian combined with 1st-order wavefunctions
     kin0=   2.89025533E+00 eigvalue=  -4.25349147E-02  local=  -1.28672623E+00
 4,5,6: 1st-order hamiltonian combined with 1st and 0th-order wfs
     kin1=  -9.13712032E+01  Hartree=   0.00000000E+00     xc=   0.00000000E+00
 7,8,9: eventually, occupation + non-local contributions
    edocc=   4.08916877E+01     enl0=   3.00106179E-01   enl1=   5.86562708E+00
 1-9 gives the relaxation energy (to be shifted if some occ is /=2.0)
   erelax=  -4.27527880E+01
  No Ewald or frozen-wf contrib.: the relaxation energy is the total one
 2DEtotal=   -0.4275278805E+02 Ha. Also 2DEtotal=   -0.116336252658E+04 eV
    (  non-var. 2DEtotal :   -4.2752788045E+01 Ha)
 
--------------------------------------------------------------------------------
 Perturbation wavevector (in red.coord.)   0.000000  0.000000  0.000000
 Perturbation : derivative vs k along direction   3
 The set of symmetries contains only one element for this perturbation.
 symkpt : not enough symmetry to change the number of k points.
 
--------------------------------------------------------------------------------
 
-inwffil : will read wavefunctions from disk file /scratch/users/j/a/jabreu/flow_simple_4atoms/flow/w155/t1/indata/in_WFK
--------------------------------------------------------------------------------
 
 Initialisation of the first-order wave-functions :
  ireadwf=   0

--- !BeginCycle
iteration_state: {dtset: 1, }
solver: {iscf: 7, nstep: 100, nline: 4, wfoptalg: 0, }
tolerances: {tolwfr: 1.00E-20, }
...
 
     iter   2DEtotal(Ha)        deltaE(Ha) residm    vres2
-ETOT  1  -6.4028985824670     -6.403E+00 4.523E-03 0.000E+00
 ETOT  2  -6.4031050611732     -2.065E-04 6.279E-06 0.000E+00
 ETOT  3  -6.4031051204450     -5.927E-08 2.279E-08 0.000E+00
 ETOT  4  -6.4031051204961     -5.106E-11 1.212E-10 0.000E+00
 ETOT  5  -6.4031051204961     -5.151E-14 5.047E-13 0.000E+00
 ETOT  6  -6.4031051204961     -4.441E-15 2.696E-15 0.000E+00
 ETOT  7  -6.4031051204961     -8.882E-16 1.206E-17 0.000E+00
 ETOT  8  -6.4031051204961      1.776E-15 6.452E-20 0.000E+00
 ETOT  9  -6.4031051204961     -1.776E-15 9.674E-21 0.000E+00
 
 At SCF step    9   max residual=  9.67E-21 < tolwfr=  1.00E-20 =>converged.
================================================================================
 
 ----iterations are completed or convergence reached----
 
 dfpt_looppert: DFPT cycle converged with prtwf=-1. Will skip output of the 1st-order WFK file.
 dfpt_looppert : ek2=    8.8537317485E+00
          f-sum rule ratio=    1.5516643229E+00
 prteigrs : about to open file /scratch/users/j/a/jabreu/flow_simple_4atoms/flow/w155/t1/tmpdata/tmp_1WF1_EIG
 Expectation of eigenvalue derivatives (hartree) for nkpt=   2  k points:
  (in case of degenerate eigenvalues, averaged derivative)
 kpt#   1, nband= 17, wtk=  0.50000, kpt=  0.0000  0.0000  0.0000 (reduced coord)
   0.00000   -0.00000   -0.00000   -0.00000   -0.00000   -0.00000   -0.00000   -0.00000
   0.00000    0.00000    0.00000    0.00000    0.00000    0.00000    0.00000   -0.00000
  -0.00000
 prteigrs : prtvol=0 or 1, do not print more k-points.
 
 
 Eight components of 2nd-order total energy (hartree) are
 1,2,3: 0th-order hamiltonian combined with 1st-order wavefunctions
     kin0=   8.06200043E-01 eigvalue=  -3.09618501E-02  local=  -3.50004799E-01
 4,5,6: 1st-order hamiltonian combined with 1st and 0th-order wfs
     kin1=  -1.37380197E+01  Hartree=   0.00000000E+00     xc=   0.00000000E+00
 7,8,9: eventually, occupation + non-local contributions
    edocc=   5.89854395E+00     enl0=   7.93277735E-02   enl1=   9.31809438E-01
 1-9 gives the relaxation energy (to be shifted if some occ is /=2.0)
   erelax=  -6.40310512E+00
  No Ewald or frozen-wf contrib.: the relaxation energy is the total one
 2DEtotal=   -0.6403105120E+01 Ha. Also 2DEtotal=   -0.174237351330E+03 eV
    (  non-var. 2DEtotal :   -6.4031051205E+00 Ha)
 
 CALCULATION OF EFFECTIVE MASSES
 NOTE : Additional infos (eff. mass eigenvalues, eigenvectors and, if degenerate, average mass) are available in stdout.

 COMMENTS: 
 - At k-point ( 0.000, 0.000, 0.000), bands     7 through     8
   are DEGENERATE (effective mass tensor is therefore not defined).
   See Section IIIB Eqs. (67)-(70) and Appendix E of PRB 93 205147 (2016).
 - Angular average effective mass for Frohlich model is to be averaged over degenerate bands. See later.
 - Associated theta integrals calculated with ntheta=   1000 points.

 K-point ( 0.000, 0.000, 0.000) | band =     7
 Transport equivalent effective mass tensor:
             -0.1269586612              0.0000000001             -0.0000000037
              0.0000000001             -0.1269586614              0.0000000130
             -0.0000000037              0.0000000130             -0.5541340522
 Transport equivalent effective mass tensor eigenvalues:
             -0.5541340522             -0.1269586615             -0.1269586611
 Angular average effective mass 1/(<1/m>)=  -0.1708644584
 Angular average effective mass for Frohlich model (<m**0.5>)**2=  -0.1891451817
 Effective masses along directions: (cart. coord. / red. coord. -> eff. mass)
    1:   1.000000  0.000000  0.000000 /   0.894427 -0.447214  0.000000 ->  -0.1269586613
    2:   0.000000  1.000000  0.000000 /   0.000000  1.000000  0.000000 ->  -0.1269586613
    3:   0.000000  0.000000  1.000000 /   0.000000  0.000000  1.000000 ->  -0.5541340484
    4:   0.577350  0.577350  0.577350 /   0.508515  0.186129  0.840695 ->  -0.1708644556
    5:   0.000000  0.707107  0.707107 /   0.000000  0.464026  0.885822 ->  -0.2065860151
    6:   0.707107  0.000000  0.707107 /   0.501054 -0.250527  0.828360 ->  -0.2065860253
    7:   0.707107  0.707107  0.000000 /   0.939071  0.343724  0.000000 ->  -0.1269586613

 K-point ( 0.000, 0.000, 0.000) | band =     8
 Transport equivalent effective mass tensor:
             -0.5647147575             -0.0000000006             -0.0000000080
             -0.0000000006             -0.5647147563             -0.0000000085
             -0.0000000080             -0.0000000085             -0.5541340522
 Transport equivalent effective mass tensor eigenvalues:
             -0.5647147578             -0.5647147560             -0.5541340522
 Angular average effective mass 1/(<1/m>)=  -0.5611432439
 Angular average effective mass for Frohlich model (<m**0.5>)**2=  -0.5611566711
 Effective masses along directions: (cart. coord. / red. coord. -> eff. mass)
    1:   1.000000  0.000000  0.000000 /   0.894427 -0.447214  0.000000 ->  -0.5647147569
    2:   0.000000  1.000000  0.000000 /   0.000000  1.000000  0.000000 ->  -0.5647147569
    3:   0.000000  0.000000  1.000000 /   0.000000  0.000000  1.000000 ->  -0.5541340559
    4:   0.577350  0.577350  0.577350 /   0.508515  0.186129  0.840695 ->  -0.5611432573
    5:   0.000000  0.707107  0.707107 /   0.000000  0.464026  0.885822 ->  -0.5593743822
    6:   0.707107  0.000000  0.707107 /   0.501054 -0.250527  0.828360 ->  -0.5593743817
    7:   0.707107  0.707107  0.000000 /   0.939071  0.343724  0.000000 ->  -0.5647147569

 Angular average effective mass for Frohlich model, averaged over degenerate bands.
 Value of     (<<m**0.5>>)**2 =     3.504712E-01
 Absolute Value of <<m**0.5>> =     5.920061E-01


 K-point ( 0.500, 0.000, 0.000) | band =     9
 Effective mass tensor:
              0.8220562657              0.4128621905             -0.0000000744
              0.4128621905              0.3453230181             -0.0000000073
             -0.0000000744             -0.0000000073              1.0994631140
 Effective mass tensor eigenvalues:
              0.1069571848              1.0604220990              1.0994631140
 Angular average effective mass 1/(<1/m>)=   0.2678071424
 Angular average effective mass for Frohlich model (<m**0.5>)**2=   0.3947134173
 Effective masses along directions: (cart. coord. / red. coord. -> eff. mass)
    1:   1.000000  0.000000  0.000000 /   0.894427 -0.447214  0.000000 ->   0.3284454163
    2:   0.000000  1.000000  0.000000 /   0.000000  1.000000  0.000000 ->   0.1379708022
    3:   0.000000  0.000000  1.000000 /   0.000000  0.000000  1.000000 ->   1.0994631140
    4:   0.577350  0.577350  0.577350 /   0.508515  0.186129  0.840695 ->   0.7649471297
    5:   0.000000  0.707107  0.707107 /   0.000000  0.464026  0.885822 ->   0.2451748141
    6:   0.707107  0.000000  0.707107 /   0.501054 -0.250527  0.828360 ->   0.5057937245
    7:   0.707107  0.707107  0.000000 /   0.939071  0.343724  0.000000 ->   0.6639434205

 END OF EFFECTIVE MASSES SECTION

================================================================================
 
 ---- first-order wavefunction calculations are completed ----
 
 
 Total localisation tensor (bohr^2) in cartesian coordinates
  WARNING : still subject to testing - especially symmetries.
      direction              matrix element
   alpha     beta       real part   imaginary part
     1        1      13.0437473223    0.0000000000
     1        2      -5.8759617230    0.0000000000
     1        3       0.0000000000    0.0000000000
     2        1      -5.8759617230    0.0000000000
     2        2      10.1774642476    0.0000000000
     2        3       0.0000000000    0.0000000000
     3        1       0.0000000000    0.0000000000
     3        2       0.0000000000    0.0000000000
     3        3       5.5621262102    0.0000000000
 
 respfn : d/dk was computed, but no 2DTE, so no DDB output.
 
== END DATASET(S) ==============================================================
================================================================================
  
 -outvars: echo values of variables after computation  --------
            acell      1.0000000000E+00  1.0000000000E+00  1.0000000000E+00 Bohr
              amu      2.80855000E+01
             ecut      1.90000000E+01 Hartree
           etotal     -6.4031051205E+00
            fcart      0.0000000000E+00  0.0000000000E+00  0.0000000000E+00
                       0.0000000000E+00  0.0000000000E+00  0.0000000000E+00
                       0.0000000000E+00  0.0000000000E+00  0.0000000000E+00
                       0.0000000000E+00  0.0000000000E+00  0.0000000000E+00
-          fftalg         512
           irdden           1
           irdwfk           1
           istwfk        1    1
              ixc     -116133
              kpt      0.00000000E+00  0.00000000E+00  0.00000000E+00
                       5.00000000E-01  0.00000000E+00  0.00000000E+00
           kptopt           0
P           mkmem           2
P          mkqmem           2
P          mk1mem           2
            natom           4
            nband          17
           nbdbuf           4
            ngfft          30      30      48
             nkpt           2
            nstep         100
             nsym          24
           ntypat           1
              occ      2.000000  2.000000  2.000000  2.000000  2.000000  2.000000
                       2.000000  2.000000  0.000000  0.000000  0.000000  0.000000
                       0.000000  0.000000  0.000000  0.000000  0.000000
        optdriver           1
            prtwf          -1
            rfdir           1       1       1
           rfelfd           2
            rprim      7.2253164181E+00  0.0000000000E+00  0.0000000000E+00
                      -3.6126582090E+00  6.2573075684E+00  0.0000000000E+00
                       0.0000000000E+00  0.0000000000E+00  1.1945151926E+01
          spgroup         194
           strten      0.0000000000E+00  0.0000000000E+00  0.0000000000E+00
                       0.0000000000E+00  0.0000000000E+00  0.0000000000E+00
           symrel      1  0  0   0  1  0   0  0  1      -1  0  0   0 -1  0   0  0 -1
                       0  1  0   1  0  0   0  0  1       0 -1  0  -1  0  0   0  0 -1
                       1  1  0  -1  0  0   0  0  1      -1 -1  0   1  0  0   0  0 -1
                      -1  0  0   1  1  0   0  0  1       1  0  0  -1 -1  0   0  0 -1
                       0  1  0  -1 -1  0   0  0  1       0 -1  0   1  1  0   0  0 -1
                      -1 -1  0   0  1  0   0  0  1       1  1  0   0 -1  0   0  0 -1
                      -1  0  0   0 -1  0   0  0  1       1  0  0   0  1  0   0  0 -1
                       0 -1  0  -1  0  0   0  0  1       0  1  0   1  0  0   0  0 -1
                      -1 -1  0   1  0  0   0  0  1       1  1  0  -1  0  0   0  0 -1
                       1  0  0  -1 -1  0   0  0  1      -1  0  0   1  1  0   0  0 -1
                       0 -1  0   1  1  0   0  0  1       0  1  0  -1 -1  0   0  0 -1
                       1  1  0   0 -1  0   0  0  1      -1 -1  0   0  1  0   0  0 -1
            tnons      0.0000000  0.0000000  0.0000000    -0.0000000 -0.0000000  0.0000000
                       0.0000000  0.0000000  0.5000000    -0.0000000 -0.0000000  0.5000000
                       0.0000000  0.0000000  0.5000000    -0.0000000 -0.0000000  0.5000000
                      -0.0000000  0.0000000  0.0000000     0.0000000 -0.0000000  0.0000000
                      -0.0000000  0.0000000  0.0000000     0.0000000 -0.0000000  0.0000000
                      -0.0000000 -0.0000000  0.5000000     0.0000000  0.0000000  0.5000000
                      -0.0000000 -0.0000000  0.5000000     0.0000000  0.0000000  0.5000000
                      -0.0000000 -0.0000000  0.0000000     0.0000000  0.0000000  0.0000000
                      -0.0000000 -0.0000000  0.0000000     0.0000000  0.0000000  0.0000000
                       0.0000000 -0.0000000  0.5000000    -0.0000000  0.0000000  0.5000000
                       0.0000000 -0.0000000  0.5000000    -0.0000000  0.0000000  0.5000000
                       0.0000000  0.0000000  0.0000000    -0.0000000 -0.0000000  0.0000000
           tolwfr      1.00000000E-20
            typat      1  1  1  1
           useylm           1
              wtk        0.50000    0.50000
           xangst      1.9117363867E+00  1.1037415174E+00  5.9229359278E+00
                       1.7639241746E-11  2.2074830349E+00  2.7623848516E+00
                       1.9117363867E+00  1.1037415174E+00  3.5587173008E+00
                       1.7639241746E-11  2.2074830349E+00  3.9816622458E-01
            xcart      3.6126582091E+00  2.0857691895E+00  1.1192726806E+01
                       3.3333336091E-11  4.1715383789E+00  5.2201508432E+00
                       3.6126582091E+00  2.0857691895E+00  6.7250010828E+00
                       3.3333336091E-11  4.1715383789E+00  7.5242511982E-01
             xred      6.6666666667E-01  3.3333333333E-01  9.3701000000E-01
                       3.3333333333E-01  6.6666666667E-01  4.3701000000E-01
                       6.6666666667E-01  3.3333333333E-01  5.6299000000E-01
                       3.3333333333E-01  6.6666666667E-01  6.2990000000E-02
            znucl       14.00000
 
================================================================================


- Timing analysis has been suppressed with timopt=0



================================================================================

 Suggested references for the acknowledgment of ABINIT usage.

 The users of ABINIT have little formal obligations with respect to the ABINIT group
 (those specified in the GNU General Public License, http://www.gnu.org/copyleft/gpl.txt).
 However, it is common practice in the scientific literature,
 to acknowledge the efforts of people that have made the research possible.
 In this spirit, please find below suggested citations of work written by ABINIT developers,
 corresponding to implementations inside of ABINIT that you have used in the present run.
 Note also that it will be of great value to readers of publications presenting these results,
 to read papers enabling them to understand the theoretical formalism and details
 of the ABINIT implementation.
 For information on why they are suggested, see also https://docs.abinit.org/theory/acknowledgments.
-
- [1] Precise effective masses from density functional perturbation theory
- J. Laflamme Janssen, Y. Gillet, S. Ponce, A. Martin, M. Torrent, and X. Gonze. Phys. Rev. B 93, 205147 (2016)
- Comment: in case the DFPT prediction of effective masses is used.
- Strong suggestion to cite this paper in your publications.
- DOI and bibtex: see https://docs.abinit.org/theory/bibliography/#laflamme2016
-
- [2] Libxc: A library of exchange and correlation functionals for density functional theory.
- M.A.L. Marques, M.J.T. Oliveira, T. Burnus, Computer Physics Communications 183, 2227 (2012).
- Comment: to be cited when LibXC is used (negative value of ixc)
- Strong suggestion to cite this paper.
- DOI and bibtex: see https://docs.abinit.org/theory/bibliography/#marques2012
-
- [3] The Abinit project: Impact, environment and recent developments.
- Computer Phys. Comm. 248, 107042 (2020).
- X.Gonze, B. Amadon, G. Antonius, F.Arnardi, L.Baguet, J.-M.Beuken,
- J.Bieder, F.Bottin, J.Bouchet, E.Bousquet, N.Brouwer, F.Bruneval,
- G.Brunin, T.Cavignac, J.-B. Charraud, Wei Chen, M.Cote, S.Cottenier,
- J.Denier, G.Geneste, Ph.Ghosez, M.Giantomassi, Y.Gillet, O.Gingras,
- D.R.Hamann, G.Hautier, Xu He, N.Helbig, N.Holzwarth, Y.Jia, F.Jollet,
- W.Lafargue-Dit-Hauret, K.Lejaeghere, M.A.L.Marques, A.Martin, C.Martins,
- H.P.C. Miranda, F.Naccarato, K. Persson, G.Petretto, V.Planes, Y.Pouillon,
- S.Prokhorenko, F.Ricci, G.-M.Rignanese, A.H.Romero, M.M.Schmitt, M.Torrent,
- M.J.van Setten, B.Van Troeye, M.J.Verstraete, G.Zerah and J.W.Zwanzig
- Comment: the fifth generic paper describing the ABINIT project.
- Note that a version of this paper, that is not formatted for Computer Phys. Comm. 
- is available at https://www.abinit.org/sites/default/files/ABINIT20.pdf .
- The licence allows the authors to put it on the Web.
- DOI and bibtex: see https://docs.abinit.org/theory/bibliography/#gonze2020
-
- [4] First-principles responses of solids to atomic displacements and homogeneous electric fields:,
- implementation of a conjugate-gradient algorithm. X. Gonze, Phys. Rev. B55, 10337 (1997).
- Comment: Non-vanishing rfphon and/or rfelfd, in the norm-conserving case.
- DOI and bibtex: see https://docs.abinit.org/theory/bibliography/#gonze1997
-
- [5] Dynamical matrices, Born effective charges, dielectric permittivity tensors, and ,
- interatomic force constants from density-functional perturbation theory,
- X. Gonze and C. Lee, Phys. Rev. B55, 10355 (1997).
- Comment: Non-vanishing rfphon and/or rfelfd, in the norm-conserving case.
- DOI and bibtex: see https://docs.abinit.org/theory/bibliography/#gonze1997a
-
- [6] Optimized norm-conserving Vanderbilt pseudopotentials.
- D.R. Hamann, Phys. Rev. B 88, 085117 (2013).
- Comment: Some pseudopotential generated using the ONCVPSP code were used.
- DOI and bibtex: see https://docs.abinit.org/theory/bibliography/#hamann2013
-
- [7] ABINIT: Overview, and focus on selected capabilities
- J. Chem. Phys. 152, 124102 (2020).
- A. Romero, D.C. Allan, B. Amadon, G. Antonius, T. Applencourt, L.Baguet,
- J.Bieder, F.Bottin, J.Bouchet, E.Bousquet, F.Bruneval,
- G.Brunin, D.Caliste, M.Cote,
- J.Denier, C. Dreyer, Ph.Ghosez, M.Giantomassi, Y.Gillet, O.Gingras,
- D.R.Hamann, G.Hautier, F.Jollet, G. Jomard,
- A.Martin, 
- H.P.C. Miranda, F.Naccarato, G.Petretto, N.A. Pike, V.Planes,
- S.Prokhorenko, T. Rangel, F.Ricci, G.-M.Rignanese, M.Royo, M.Stengel, M.Torrent,
- M.J.van Setten, B.Van Troeye, M.J.Verstraete, J.Wiktor, J.W.Zwanziger, and X.Gonze.
- Comment: a global overview of ABINIT, with focus on selected capabilities .
- Note that a version of this paper, that is not formatted for J. Chem. Phys 
- is available at https://www.abinit.org/sites/default/files/ABINIT20_JPC.pdf .
- The licence allows the authors to put it on the Web.
- DOI and bibtex: see https://docs.abinit.org/theory/bibliography/#romero2020
-
- [8] Recent developments in the ABINIT software package.
- Computer Phys. Comm. 205, 106 (2016).
- X.Gonze, F.Jollet, F.Abreu Araujo, D.Adams, B.Amadon, T.Applencourt,
- C.Audouze, J.-M.Beuken, J.Bieder, A.Bokhanchuk, E.Bousquet, F.Bruneval
- D.Caliste, M.Cote, F.Dahm, F.Da Pieve, M.Delaveau, M.Di Gennaro,
- B.Dorado, C.Espejo, G.Geneste, L.Genovese, A.Gerossier, M.Giantomassi,
- Y.Gillet, D.R.Hamann, L.He, G.Jomard, J.Laflamme Janssen, S.Le Roux,
- A.Levitt, A.Lherbier, F.Liu, I.Lukacevic, A.Martin, C.Martins,
- M.J.T.Oliveira, S.Ponce, Y.Pouillon, T.Rangel, G.-M.Rignanese,
- A.H.Romero, B.Rousseau, O.Rubel, A.A.Shukri, M.Stankovski, M.Torrent,
- M.J.Van Setten, B.Van Troeye, M.J.Verstraete, D.Waroquier, J.Wiktor,
- B.Xu, A.Zhou, J.W.Zwanziger.
- Comment: the fourth generic paper describing the ABINIT project.
- Note that a version of this paper, that is not formatted for Computer Phys. Comm. 
- is available at https://www.abinit.org/sites/default/files/ABINIT16.pdf .
- The licence allows the authors to put it on the Web.
- DOI and bibtex: see https://docs.abinit.org/theory/bibliography/#gonze2016
-
- Proc.   0 individual time (sec): cpu=         10.2  wall=         11.7
 
================================================================================
 
 Calculation completed.
.Delivered  14 WARNINGs and   9 COMMENTs to log file.
+Overall time at end (sec) : cpu=         10.2  wall=         11.7
