
.Version 9.5.1 of ABINIT 
.(MPI version, prepared for a x86_64_linux_intel19.1 computer) 

.Copyright (C) 1998-2021 ABINIT group . 
 ABINIT comes with ABSOLUTELY NO WARRANTY.
 It is free software, and you are welcome to redistribute it
 under certain conditions (GNU General Public License,
 see ~abinit/COPYING or http://www.gnu.org/copyleft/gpl.txt).

 ABINIT is a project of the Universite Catholique de Louvain,
 Corning Inc. and other collaborators, see ~abinit/doc/developers/contributors.txt .
 Please read https://docs.abinit.org/theory/acknowledgments for suggested
 acknowledgments of the ABINIT effort.
 For more information, see https://www.abinit.org .

.Starting date : Sun 25 Apr 2021.
- ( at 17h23 )
  
- input  file    -> /scratch/users/j/a/jabreu/flow_simple2/flow/w218/t1/run.abi
- output file    -> /scratch/users/j/a/jabreu/flow_simple2/flow/w218/t1/run.abo
- root for input  files -> /scratch/users/j/a/jabreu/flow_simple2/flow/w218/t1/indata/in
- root for output files -> /scratch/users/j/a/jabreu/flow_simple2/flow/w218/t1/outdata/out
 
 
 Symmetries : space group Fm -3 m (#225); Bravais cF (face-center cubic)
================================================================================
 Values of the parameters that define the memory need of the present run (RF).
     intxc =       0      iscf =       7    lmnmax =      18     lnmax =       6
     mgfft =      54  mpssoang =       3    mqgrid =    3001     natom =       2
  nloc_mem =       1    nspden =       1   nspinor =       1    nsppol =       1
      nsym =      48    n1xccc =    2501    ntypat =       2    occopt =       1
   xclevel =       2
-    mband =          22        mffmem =           1         mkmem =           2
-   mkqmem =           2        mk1mem =           2           mpw =        6855
      nfft =      157464          nkpt =           2
================================================================================
P This job should need less than                      63.007 Mbytes of memory.
  Rough estimation (10% accuracy) of disk space for files :
_ WF disk file :      4.604 Mbytes ; DEN or POT disk file :      1.203 Mbytes.
================================================================================
 
--------------------------------------------------------------------------------
------------- Echo of variables that govern the present computation ------------
--------------------------------------------------------------------------------
-
- outvars: echo of selected default values                                      
-   iomode0 =  0 , fftalg0 =512 , wfoptalg0 =  0
-
- outvars: echo of global parameters not present in the input file              
-  max_nthreads =    0
-
 -outvars: echo values of preprocessed input variables --------
            acell      1.0000000000E+00  1.0000000000E+00  1.0000000000E+00 Bohr
              amu      1.37327000E+02  1.27600000E+02
             ecut      4.00000000E+01 Hartree
-          fftalg         512
           irdden           1
           irdwfk           1
           istwfk        1    1
              ixc     -116133
              kpt      0.00000000E+00  0.00000000E+00  0.00000000E+00
                       5.00000000E-01  3.07193165E-17  5.00000000E-01
           kptopt           0
P           mkmem           2
P          mkqmem           2
P          mk1mem           2
            natom           2
            nband          22
           nbdbuf           4
            ngfft          54      54      54
             nkpt           2
            nstep         100
             nsym          48
           ntypat           2
              occ      2.000000  2.000000  2.000000  2.000000  2.000000  2.000000
                       2.000000  2.000000  2.000000  2.000000  2.000000  2.000000
                       2.000000  0.000000  0.000000  0.000000  0.000000  0.000000
                       0.000000  0.000000  0.000000  0.000000
        optdriver           1
            prtwf          -1
            rfdir           1       1       1
           rfelfd           2
            rprim      8.0474016758E+00  0.0000000000E+00  4.6461695238E+00
                       2.6824672253E+00  7.5871630612E+00  4.6461695238E+00
                       0.0000000000E+00  0.0000000000E+00  9.2923390476E+00
          spgroup         225
           symrel      1  0  0   0  1  0   0  0  1      -1  0  0   0 -1  0   0  0 -1
                       0 -1  1   0 -1  0   1 -1  0       0  1 -1   0  1  0  -1  1  0
                      -1  0  0  -1  0  1  -1  1  0       1  0  0   1  0 -1   1 -1  0
                       0  1 -1   1  0 -1   0  0 -1       0 -1  1  -1  0  1   0  0  1
                      -1  0  0  -1  1  0  -1  0  1       1  0  0   1 -1  0   1  0 -1
                       0 -1  1   1 -1  0   0 -1  0       0  1 -1  -1  1  0   0  1  0
                       1  0  0   0  0  1   0  1  0      -1  0  0   0  0 -1   0 -1  0
                       0  1 -1   0  0 -1   1  0 -1       0 -1  1   0  0  1  -1  0  1
                      -1  0  1  -1  1  0  -1  0  0       1  0 -1   1 -1  0   1  0  0
                       0 -1  0   1 -1  0   0 -1  1       0  1  0  -1  1  0   0  1 -1
                       1  0 -1   0  0 -1   0  1 -1      -1  0  1   0  0  1   0 -1  1
                       0  1  0   0  0  1   1  0  0       0 -1  0   0  0 -1  -1  0  0
                       1  0 -1   0  1 -1   0  0 -1      -1  0  1   0 -1  1   0  0  1
                       0 -1  0   0 -1  1   1 -1  0       0  1  0   0  1 -1  -1  1  0
                      -1  0  1  -1  0  0  -1  1  0       1  0 -1   1  0  0   1 -1  0
                       0  1  0   1  0  0   0  0  1       0 -1  0  -1  0  0   0  0 -1
                       0  0 -1   0  1 -1   1  0 -1       0  0  1   0 -1  1  -1  0  1
                       1 -1  0   0 -1  1   0 -1  0      -1  1  0   0  1 -1   0  1  0
                       0  0  1   1  0  0   0  1  0       0  0 -1  -1  0  0   0 -1  0
                      -1  1  0  -1  0  0  -1  0  1       1 -1  0   1  0  0   1  0 -1
                       0  0  1   0  1  0   1  0  0       0  0 -1   0 -1  0  -1  0  0
                       1 -1  0   0 -1  0   0 -1  1      -1  1  0   0  1  0   0  1 -1
                       0  0 -1   1  0 -1   0  1 -1       0  0  1  -1  0  1   0 -1  1
                      -1  1  0  -1  0  1  -1  0  0       1 -1  0   1  0 -1   1  0  0
           tolwfr      1.00000000E-20
            typat      1  2
           useylm           1
              wtk        0.50000    0.50000
           xangst      0.0000000000E+00  0.0000000000E+00  0.0000000000E+00
                       2.8390010368E+00  2.0074768849E+00  4.9172940385E+00
            xcart      0.0000000000E+00  0.0000000000E+00  0.0000000000E+00
                       5.3649344505E+00  3.7935815306E+00  9.2923390476E+00
             xred      0.0000000000E+00  0.0000000000E+00  0.0000000000E+00
                       5.0000000000E-01  5.0000000000E-01  5.0000000000E-01
            znucl       56.00000   52.00000
 
================================================================================
 
 chkinp: Checking input parameters for consistency.
 
================================================================================
== DATASET  1 ==================================================================
-   mpi_nproc: 1, omp_nthreads: -1 (-1 if OMP is not activated)
 

--- !DatasetInfo
iteration_state: {dtset: 1, }
dimensions: {natom: 2, nkpt: 2, mband: 22, nsppol: 1, nspinor: 1, nspden: 1, mpw: 6855, }
cutoff_energies: {ecut:  40.0, pawecutdg:  -1.0, }
electrons: {nelect:   2.60000000E+01, charge:   0.00000000E+00, occopt:   1.00000000E+00, tsmear:   1.00000000E-02, }
meta: {optdriver: 1, rfelfd: 2, }
...

 Real(R)+Recip(G) space primitive vectors, cartesian coordinates (Bohr,Bohr^-1):
 R(1)=  8.0474017  0.0000000  4.6461695  G(1)=  0.1242637 -0.0439339  0.0000000
 R(2)=  2.6824672  7.5871631  4.6461695  G(2)=  0.0000000  0.1318016  0.0000000
 R(3)=  0.0000000  0.0000000  9.2923390  G(3)= -0.0621319 -0.0439339  0.1076155
 Unit cell volume ucvol=  5.6736187E+02 bohr^3
 Angles (23,13,12)=  6.00000000E+01  6.00000000E+01  6.00000000E+01 degrees
 
 getcut: wavevector=  0.0000  0.0000  0.0000  ngfft=  54  54  54
         ecut(hartree)=     40.000   => boxcut(ratio)=   2.04184
 
--- Pseudopotential description ------------------------------------------------
- pspini: atom type   1  psp file is /scratch/users/j/a/jabreu/pseudos/PBEsol/Ba.psp8
- pspatm: opening atomic psp file    /scratch/users/j/a/jabreu/pseudos/PBEsol/Ba.psp8
- Ba    ONCVPSP-3.3.0  r_core=   2.15444   1.91218   2.15444
- 56.00000  10.00000    180112                znucl, zion, pspdat
    8 -116133    2    4       600   0.00000   pspcod,pspxc,lmax,lloc,mmax,r2well
    5.99000000000000    5.00000000000000    0.00000000000000   rchrg,fchrg,qchrg
     nproj     2     2     2
     extension_switch     1
  pspatm : epsatm=   26.37418029
         --- l  ekb(1:nproj) -->
             0    6.652372    0.677024
             1    5.027722    0.408462
             2    2.543237    0.416854
 pspatm: atomic psp has been read  and splines computed
 
- pspini: atom type   2  psp file is /scratch/users/j/a/jabreu/pseudos/PBEsol/Te.psp8
- pspatm: opening atomic psp file    /scratch/users/j/a/jabreu/pseudos/PBEsol/Te.psp8
- Te    ONCVPSP-3.3.0  r_core=   2.26547   1.91704   1.80604
- 52.00000  16.00000    180112                znucl, zion, pspdat
    8 -116133    2    4       600   0.00000   pspcod,pspxc,lmax,lloc,mmax,r2well
    5.99000000000000    5.00000000000000    0.00000000000000   rchrg,fchrg,qchrg
     nproj     2     2     2
     extension_switch     1
  pspatm : epsatm=   36.82679836
         --- l  ekb(1:nproj) -->
             0    6.345999    0.785432
             1    5.709019    1.070069
             2   -6.035173   -1.870937
 pspatm: atomic psp has been read  and splines computed
 
   1.64322544E+03                                ecore*ucvol(ha*bohr**3)
--------------------------------------------------------------------------------
 
-inwffil : will read wavefunctions from disk file /scratch/users/j/a/jabreu/flow_simple2/flow/w218/t1/indata/in_WFK
 
 ==>  initialize data related to q vector <== 
 
 The list of irreducible perturbations for this q vector is:
    1)    idir= 1    ipert=   3
    2)    idir= 2    ipert=   3
    3)    idir= 3    ipert=   3
 
================================================================================
 
--------------------------------------------------------------------------------
 Perturbation wavevector (in red.coord.)   0.000000  0.000000  0.000000
 Perturbation : derivative vs k along direction   1
 
 dfpt_looppert : COMMENT -
  In a d/dk calculation, iscf is set to -3 automatically.
 The set of symmetries contains only one element for this perturbation.
 symkpt : not enough symmetry to change the number of k points.
 
--------------------------------------------------------------------------------
 
-inwffil : will read wavefunctions from disk file /scratch/users/j/a/jabreu/flow_simple2/flow/w218/t1/indata/in_WFK
--------------------------------------------------------------------------------
 
 Initialisation of the first-order wave-functions :
  ireadwf=   0

--- !BeginCycle
iteration_state: {dtset: 1, }
solver: {iscf: 7, nstep: 100, nline: 4, wfoptalg: 0, }
tolerances: {tolwfr: 1.00E-20, }
...
 
     iter   2DEtotal(Ha)        deltaE(Ha) residm    vres2
-ETOT  1  -41.520044653838     -4.152E+01 3.334E-02 0.000E+00
 ETOT  2  -41.531895161140     -1.185E-02 1.080E-05 0.000E+00
 ETOT  3  -41.531898620005     -3.459E-06 4.108E-08 0.000E+00
 ETOT  4  -41.531898623578     -3.573E-09 1.645E-10 0.000E+00
 ETOT  5  -41.531898623584     -5.798E-12 1.587E-12 0.000E+00
 ETOT  6  -41.531898623584     -4.263E-14 7.390E-15 0.000E+00
 ETOT  7  -41.531898623584      1.421E-14 8.381E-17 0.000E+00
 ETOT  8  -41.531898623584      2.842E-14 3.904E-19 0.000E+00
 ETOT  9  -41.531898623584      0.000E+00 9.975E-21 0.000E+00
 
 At SCF step    9   max residual=  9.98E-21 < tolwfr=  1.00E-20 =>converged.
================================================================================
 
 ----iterations are completed or convergence reached----
 
 dfpt_looppert: DFPT cycle converged with prtwf=-1. Will skip output of the 1st-order WFK file.
 dfpt_looppert : ek2=    3.5661880842E+01
          f-sum rule ratio=    1.4380175339E+00
 prteigrs : about to open file /scratch/users/j/a/jabreu/flow_simple2/flow/w218/t1/tmpdata/tmp_1WF1_EIG
 Expectation of eigenvalue derivatives (hartree) for nkpt=   2  k points:
  (in case of degenerate eigenvalues, averaged derivative)
 kpt#   1, nband= 22, wtk=  0.50000, kpt=  0.0000  0.0000  0.0000 (reduced coord)
  -0.00000   -0.00000   -0.00000   -0.00000   -0.00000   -0.00000   -0.00000   -0.00000
  -0.00000    0.00000    0.00000    0.00000    0.00000    0.00000    0.00000    0.00000
   0.00000    0.00000    0.00000    0.00000   -0.00210    0.00085
 prteigrs : prtvol=0 or 1, do not print more k-points.
 
 
 Eight components of 2nd-order total energy (hartree) are
 1,2,3: 0th-order hamiltonian combined with 1st-order wavefunctions
     kin0=   2.89656148E+01 eigvalue=   5.28454626E+00  local=  -1.51142690E+01
 4,5,6: 1st-order hamiltonian combined with 1st and 0th-order wfs
     kin1=  -5.12824099E+01  Hartree=   0.00000000E+00     xc=   0.00000000E+00
 7,8,9: eventually, occupation + non-local contributions
    edocc=   1.76912649E+01     enl0=   4.70474161E+00   enl1=  -3.17813873E+01
 1-9 gives the relaxation energy (to be shifted if some occ is /=2.0)
   erelax=  -4.15318986E+01
  No Ewald or frozen-wf contrib.: the relaxation energy is the total one
 2DEtotal=   -0.4153189862E+02 Ha. Also 2DEtotal=   -0.113014043588E+04 eV
    (  non-var. 2DEtotal :   -4.1531898624E+01 Ha)
 
--------------------------------------------------------------------------------
 Perturbation wavevector (in red.coord.)   0.000000  0.000000  0.000000
 Perturbation : derivative vs k along direction   2
 The set of symmetries contains only one element for this perturbation.
 symkpt : not enough symmetry to change the number of k points.
 
--------------------------------------------------------------------------------
 
-inwffil : will read wavefunctions from disk file /scratch/users/j/a/jabreu/flow_simple2/flow/w218/t1/indata/in_WFK
--------------------------------------------------------------------------------
 
 Initialisation of the first-order wave-functions :
  ireadwf=   0

--- !BeginCycle
iteration_state: {dtset: 1, }
solver: {iscf: 7, nstep: 100, nline: 4, wfoptalg: 0, }
tolerances: {tolwfr: 1.00E-20, }
...
 
     iter   2DEtotal(Ha)        deltaE(Ha) residm    vres2
-ETOT  1  -41.519180677998     -4.152E+01 2.678E-02 0.000E+00
 ETOT  2  -41.531225105054     -1.204E-02 1.069E-05 0.000E+00
 ETOT  3  -41.531228753807     -3.649E-06 4.006E-08 0.000E+00
 ETOT  4  -41.531228757621     -3.814E-09 1.642E-10 0.000E+00
 ETOT  5  -41.531228757627     -6.231E-12 1.571E-12 0.000E+00
 ETOT  6  -41.531228757627      4.974E-14 7.396E-15 0.000E+00
 ETOT  7  -41.531228757627     -2.842E-14 8.301E-17 0.000E+00
 ETOT  8  -41.531228757627      2.132E-14 3.923E-19 0.000E+00
 ETOT  9  -41.531228757627     -1.421E-14 8.829E-21 0.000E+00
 
 At SCF step    9   max residual=  8.83E-21 < tolwfr=  1.00E-20 =>converged.
================================================================================
 
 ----iterations are completed or convergence reached----
 
 dfpt_looppert: DFPT cycle converged with prtwf=-1. Will skip output of the 1st-order WFK file.
 dfpt_looppert : ek2=    3.5661880842E+01
          f-sum rule ratio=    1.4379916721E+00
 prteigrs : about to open file /scratch/users/j/a/jabreu/flow_simple2/flow/w218/t1/tmpdata/tmp_1WF1_EIG
 Expectation of eigenvalue derivatives (hartree) for nkpt=   2  k points:
  (in case of degenerate eigenvalues, averaged derivative)
 kpt#   1, nband= 22, wtk=  0.50000, kpt=  0.0000  0.0000  0.0000 (reduced coord)
   0.00000    0.00000   -0.00000   -0.00000   -0.00000   -0.00000    0.00000    0.00000
   0.00000   -0.00000   -0.00000   -0.00000   -0.00000   -0.00000    0.00000    0.00000
   0.00000    0.00000    0.00000    0.00000   -0.00082   -0.01457
 prteigrs : prtvol=0 or 1, do not print more k-points.
 
 
 Eight components of 2nd-order total energy (hartree) are
 1,2,3: 0th-order hamiltonian combined with 1st-order wavefunctions
     kin0=   2.88950146E+01 eigvalue=   5.28512124E+00  local=  -1.50730402E+01
 4,5,6: 1st-order hamiltonian combined with 1st and 0th-order wfs
     kin1=  -5.12814877E+01  Hartree=   0.00000000E+00     xc=   0.00000000E+00
 7,8,9: eventually, occupation + non-local contributions
    edocc=   1.77220175E+01     enl0=   4.70211563E+00   enl1=  -3.17809699E+01
 1-9 gives the relaxation energy (to be shifted if some occ is /=2.0)
   erelax=  -4.15312288E+01
  No Ewald or frozen-wf contrib.: the relaxation energy is the total one
 2DEtotal=   -0.4153122876E+02 Ha. Also 2DEtotal=   -0.113012220790E+04 eV
    (  non-var. 2DEtotal :   -4.1531228758E+01 Ha)
 
--------------------------------------------------------------------------------
 Perturbation wavevector (in red.coord.)   0.000000  0.000000  0.000000
 Perturbation : derivative vs k along direction   3
 The set of symmetries contains only one element for this perturbation.
 symkpt : not enough symmetry to change the number of k points.
 
--------------------------------------------------------------------------------
 
-inwffil : will read wavefunctions from disk file /scratch/users/j/a/jabreu/flow_simple2/flow/w218/t1/indata/in_WFK
--------------------------------------------------------------------------------
 
 Initialisation of the first-order wave-functions :
  ireadwf=   0

--- !BeginCycle
iteration_state: {dtset: 1, }
solver: {iscf: 7, nstep: 100, nline: 4, wfoptalg: 0, }
tolerances: {tolwfr: 1.00E-20, }
...
 
     iter   2DEtotal(Ha)        deltaE(Ha) residm    vres2
-ETOT  1  -41.519708627468     -4.152E+01 3.346E-02 0.000E+00
 ETOT  2  -41.531403467538     -1.169E-02 1.081E-05 0.000E+00
 ETOT  3  -41.531406761494     -3.294E-06 3.775E-08 0.000E+00
 ETOT  4  -41.531406764844     -3.350E-09 1.278E-10 0.000E+00
 ETOT  5  -41.531406764849     -5.421E-12 1.362E-12 0.000E+00
 ETOT  6  -41.531406764849     -3.553E-14 5.476E-15 0.000E+00
 ETOT  7  -41.531406764849     -1.421E-14 6.573E-17 0.000E+00
 ETOT  8  -41.531406764849      1.421E-14 2.729E-19 0.000E+00
 ETOT  9  -41.531406764849      0.000E+00 9.821E-21 0.000E+00
 
 At SCF step    9   max residual=  9.82E-21 < tolwfr=  1.00E-20 =>converged.
================================================================================
 
 ----iterations are completed or convergence reached----
 
 dfpt_looppert: DFPT cycle converged with prtwf=-1. Will skip output of the 1st-order WFK file.
 dfpt_looppert : ek2=    3.5661880842E+01
          f-sum rule ratio=    1.4379955897E+00
 prteigrs : about to open file /scratch/users/j/a/jabreu/flow_simple2/flow/w218/t1/tmpdata/tmp_1WF1_EIG
 Expectation of eigenvalue derivatives (hartree) for nkpt=   2  k points:
  (in case of degenerate eigenvalues, averaged derivative)
 kpt#   1, nband= 22, wtk=  0.50000, kpt=  0.0000  0.0000  0.0000 (reduced coord)
   0.00000    0.00000    0.00000    0.00000    0.00000    0.00000   -0.00000   -0.00000
  -0.00000    0.00000    0.00000    0.00000    0.00000    0.00000   -0.00000   -0.00000
  -0.00000   -0.00000   -0.00000   -0.00000    0.01831    0.01735
 prteigrs : prtvol=0 or 1, do not print more k-points.
 
 
 Eight components of 2nd-order total energy (hartree) are
 1,2,3: 0th-order hamiltonian combined with 1st-order wavefunctions
     kin0=   2.85216828E+01 eigvalue=   5.29797178E+00  local=  -1.48680208E+01
 4,5,6: 1st-order hamiltonian combined with 1st and 0th-order wfs
     kin1=  -5.12816274E+01  Hartree=   0.00000000E+00     xc=   0.00000000E+00
 7,8,9: eventually, occupation + non-local contributions
    edocc=   1.78784327E+01     enl0=   4.70134034E+00   enl1=  -3.17811862E+01
 1-9 gives the relaxation energy (to be shifted if some occ is /=2.0)
   erelax=  -4.15314068E+01
  No Ewald or frozen-wf contrib.: the relaxation energy is the total one
 2DEtotal=   -0.4153140676E+02 Ha. Also 2DEtotal=   -0.113012705172E+04 eV
    (  non-var. 2DEtotal :   -4.1531406765E+01 Ha)
 
 CALCULATION OF EFFECTIVE MASSES
 NOTE : Additional infos (eff. mass eigenvalues, eigenvectors and, if degenerate, average mass) are available in stdout.

 COMMENTS: 
 - At k-point ( 0.000, 0.000, 0.000), bands    11 through    13
   are DEGENERATE (effective mass tensor is therefore not defined).
   See Section IIIB Eqs. (67)-(70) and Appendix E of PRB 93 205147 (2016).
 - Angular average effective mass for Frohlich model is to be averaged over degenerate bands. See later.
 - Associated theta integrals calculated with ntheta=   1000 points.

 K-point ( 0.000, 0.000, 0.000) | band =    11
 Transport equivalent effective mass tensor:
             -0.1961473777              0.0000012254              0.0000166538
              0.0000012254             -0.1961613226              0.0000116878
              0.0000166538              0.0000116878             -0.1961441636
 Transport equivalent effective mass tensor eigenvalues:
             -0.1961699779             -0.1961565177             -0.1961263683
 Angular average effective mass 1/(<1/m>)=  -0.1754619359
 Angular average effective mass for Frohlich model (<m**0.5>)**2=  -0.1768130363
 Effective masses along directions: (cart. coord. / red. coord. -> eff. mass)
    1:   1.000000  0.000000  0.000000 /   0.948683  0.316228  0.000000 ->  -0.1836999929
    2:   0.000000  1.000000  0.000000 /   0.000000  1.000000  0.000000 ->  -0.2110696318
    3:   0.000000  0.000000  1.000000 /   0.408248  0.408248  0.816497 ->  -0.1894844216
    4:   0.577350  0.577350  0.577350 /   0.585539  0.688047  0.428644 ->  -0.1852990858
    5:   0.000000  0.707107  0.707107 /   0.289489  0.762222  0.578977 ->  -0.1637779356
    6:   0.707107  0.000000  0.707107 /   0.731423  0.422287  0.535439 ->  -0.1864026789
    7:   0.707107  0.707107  0.000000 /   0.616798  0.787122  0.000000 ->  -0.1479276938

 K-point ( 0.000, 0.000, 0.000) | band =    12
 Transport equivalent effective mass tensor:
             -1.2969528424             -0.0000111184              0.0000766352
             -0.0000111184             -1.2970235465              0.0000500355
              0.0000766352              0.0000500355             -1.2969935229
 Transport equivalent effective mass tensor eigenvalues:
             -1.2970875153             -1.2969924147             -1.2968899818
 Angular average effective mass 1/(<1/m>)=  -0.5492477610
 Angular average effective mass for Frohlich model (<m**0.5>)**2=  -0.5801933808
 Effective masses along directions: (cart. coord. / red. coord. -> eff. mass)
    1:   1.000000  0.000000  0.000000 /   0.948683  0.316228  0.000000 ->  -0.5618321522
    2:   0.000000  1.000000  0.000000 /   0.000000  1.000000  0.000000 ->  -0.5138401620
    3:   0.000000  0.000000  1.000000 /   0.408248  0.408248  0.816497 ->  -0.4023682902
    4:   0.577350  0.577350  0.577350 /   0.585539  0.688047  0.428644 ->  -0.5048236069
    5:   0.000000  0.707107  0.707107 /   0.289489  0.762222  0.578977 ->  -0.6167655253
    6:   0.707107  0.000000  0.707107 /   0.731423  0.422287  0.535439 ->  -0.4520243441
    7:   0.707107  0.707107  0.000000 /   0.616798  0.787122  0.000000 ->  -1.0457567936

 K-point ( 0.000, 0.000, 0.000) | band =    13
 Transport equivalent effective mass tensor:
             -1.7364328303             -0.0000441970              0.0000767855
             -0.0000441970             -1.7365112577              0.0000688795
              0.0000767855              0.0000688795             -1.7365212639
 Transport equivalent effective mass tensor eigenvalues:
             -1.7366246341             -1.7364524457             -1.7363882721
 Angular average effective mass 1/(<1/m>)=  -0.9006259090
 Angular average effective mass for Frohlich model (<m**0.5>)**2=  -0.9322271308
 Effective masses along directions: (cart. coord. / red. coord. -> eff. mass)
    1:   1.000000  0.000000  0.000000 /   0.948683  0.316228  0.000000 ->  -0.7108113379
    2:   0.000000  1.000000  0.000000 /   0.000000  1.000000  0.000000 ->  -0.5138566950
    3:   0.000000  0.000000  1.000000 /   0.408248  0.408248  0.816497 ->  -1.1525646385
    4:   0.577350  0.577350  0.577350 /   0.585539  0.688047  0.428644 ->  -0.7979295018
    5:   0.000000  0.707107  0.707107 /   0.289489  0.762222  0.578977 ->  -1.1070142935
    6:   0.707107  0.000000  0.707107 /   0.731423  0.422287  0.535439 ->  -0.9488698299
    7:   0.707107  0.707107  0.000000 /   0.616798  0.787122  0.000000 ->  -1.0942244509

 Angular average effective mass for Frohlich model, averaged over degenerate bands.
 Value of     (<<m**0.5>>)**2 =     5.125199E-01
 Absolute Value of <<m**0.5>> =     7.159049E-01


 K-point ( 0.500, 0.000, 0.500) | band =    14
 Effective mass tensor:
              0.4232748731             -0.2435368604              0.2982702977
             -0.2435368604              0.5954823233             -0.4218172848
              0.2982702977             -0.4218172848              0.7676890284
 Effective mass tensor eigenvalues:
              0.2510684148              0.2510701914              1.2843076187
 Angular average effective mass 1/(<1/m>)=   0.3430705253
 Angular average effective mass for Frohlich model (<m**0.5>)**2=   0.3864599590
 Effective masses along directions: (cart. coord. / red. coord. -> eff. mass)
    1:   1.000000  0.000000  0.000000 /   0.948683  0.316228  0.000000 ->   0.2899458433
    2:   0.000000  1.000000  0.000000 /   0.000000  1.000000  0.000000 ->   0.3430711628
    3:   0.000000  0.000000  1.000000 /   0.408248  0.408248  0.816497 ->   0.4200285390
    4:   0.577350  0.577350  0.577350 /   0.585539  0.688047  0.428644 ->   0.2721979318
    5:   0.000000  0.707107  0.707107 /   0.289489  0.762222  0.578977 ->   0.2527821914
    6:   0.707107  0.000000  0.707107 /   0.731423  0.422287  0.535439 ->   0.5025524884
    7:   0.707107  0.707107  0.000000 /   0.616798  0.787122  0.000000 ->   0.2539903238

 END OF EFFECTIVE MASSES SECTION

================================================================================
 
 ---- first-order wavefunction calculations are completed ----
 
 
 Total localisation tensor (bohr^2) in cartesian coordinates
  WARNING : still subject to testing - especially symmetries.
      direction              matrix element
   alpha     beta       real part   imaginary part
     1        1       4.1555647151    0.0000000000
     1        2       1.1753596095    0.0000000000
     1        3       2.8790549582    0.0000000000
     2        1       1.1753596095    0.0000000000
     2        2       3.3244190009    0.0000000000
     2        3       2.0357825608    0.0000000000
     3        1       2.8790549582    0.0000000000
     3        2       2.0357825608    0.0000000000
     3        3       7.4799550362    0.0000000000
 
 respfn : d/dk was computed, but no 2DTE, so no DDB output.
 
== END DATASET(S) ==============================================================
================================================================================
  
 -outvars: echo values of variables after computation  --------
            acell      1.0000000000E+00  1.0000000000E+00  1.0000000000E+00 Bohr
              amu      1.37327000E+02  1.27600000E+02
             ecut      4.00000000E+01 Hartree
           etotal     -4.1531406765E+01
            fcart      0.0000000000E+00  0.0000000000E+00  0.0000000000E+00
                       0.0000000000E+00  0.0000000000E+00  0.0000000000E+00
-          fftalg         512
           irdden           1
           irdwfk           1
           istwfk        1    1
              ixc     -116133
              kpt      0.00000000E+00  0.00000000E+00  0.00000000E+00
                       5.00000000E-01  3.07193165E-17  5.00000000E-01
           kptopt           0
P           mkmem           2
P          mkqmem           2
P          mk1mem           2
            natom           2
            nband          22
           nbdbuf           4
            ngfft          54      54      54
             nkpt           2
            nstep         100
             nsym          48
           ntypat           2
              occ      2.000000  2.000000  2.000000  2.000000  2.000000  2.000000
                       2.000000  2.000000  2.000000  2.000000  2.000000  2.000000
                       2.000000  0.000000  0.000000  0.000000  0.000000  0.000000
                       0.000000  0.000000  0.000000  0.000000
        optdriver           1
            prtwf          -1
            rfdir           1       1       1
           rfelfd           2
            rprim      8.0474016758E+00  0.0000000000E+00  4.6461695238E+00
                       2.6824672253E+00  7.5871630612E+00  4.6461695238E+00
                       0.0000000000E+00  0.0000000000E+00  9.2923390476E+00
          spgroup         225
           strten      0.0000000000E+00  0.0000000000E+00  0.0000000000E+00
                       0.0000000000E+00  0.0000000000E+00  0.0000000000E+00
           symrel      1  0  0   0  1  0   0  0  1      -1  0  0   0 -1  0   0  0 -1
                       0 -1  1   0 -1  0   1 -1  0       0  1 -1   0  1  0  -1  1  0
                      -1  0  0  -1  0  1  -1  1  0       1  0  0   1  0 -1   1 -1  0
                       0  1 -1   1  0 -1   0  0 -1       0 -1  1  -1  0  1   0  0  1
                      -1  0  0  -1  1  0  -1  0  1       1  0  0   1 -1  0   1  0 -1
                       0 -1  1   1 -1  0   0 -1  0       0  1 -1  -1  1  0   0  1  0
                       1  0  0   0  0  1   0  1  0      -1  0  0   0  0 -1   0 -1  0
                       0  1 -1   0  0 -1   1  0 -1       0 -1  1   0  0  1  -1  0  1
                      -1  0  1  -1  1  0  -1  0  0       1  0 -1   1 -1  0   1  0  0
                       0 -1  0   1 -1  0   0 -1  1       0  1  0  -1  1  0   0  1 -1
                       1  0 -1   0  0 -1   0  1 -1      -1  0  1   0  0  1   0 -1  1
                       0  1  0   0  0  1   1  0  0       0 -1  0   0  0 -1  -1  0  0
                       1  0 -1   0  1 -1   0  0 -1      -1  0  1   0 -1  1   0  0  1
                       0 -1  0   0 -1  1   1 -1  0       0  1  0   0  1 -1  -1  1  0
                      -1  0  1  -1  0  0  -1  1  0       1  0 -1   1  0  0   1 -1  0
                       0  1  0   1  0  0   0  0  1       0 -1  0  -1  0  0   0  0 -1
                       0  0 -1   0  1 -1   1  0 -1       0  0  1   0 -1  1  -1  0  1
                       1 -1  0   0 -1  1   0 -1  0      -1  1  0   0  1 -1   0  1  0
                       0  0  1   1  0  0   0  1  0       0  0 -1  -1  0  0   0 -1  0
                      -1  1  0  -1  0  0  -1  0  1       1 -1  0   1  0  0   1  0 -1
                       0  0  1   0  1  0   1  0  0       0  0 -1   0 -1  0  -1  0  0
                       1 -1  0   0 -1  0   0 -1  1      -1  1  0   0  1  0   0  1 -1
                       0  0 -1   1  0 -1   0  1 -1       0  0  1  -1  0  1   0 -1  1
                      -1  1  0  -1  0  1  -1  0  0       1 -1  0   1  0 -1   1  0  0
           tolwfr      1.00000000E-20
            typat      1  2
           useylm           1
              wtk        0.50000    0.50000
           xangst      0.0000000000E+00  0.0000000000E+00  0.0000000000E+00
                       2.8390010368E+00  2.0074768849E+00  4.9172940385E+00
            xcart      0.0000000000E+00  0.0000000000E+00  0.0000000000E+00
                       5.3649344505E+00  3.7935815306E+00  9.2923390476E+00
             xred      0.0000000000E+00  0.0000000000E+00  0.0000000000E+00
                       5.0000000000E-01  5.0000000000E-01  5.0000000000E-01
            znucl       56.00000   52.00000
 
================================================================================


- Timing analysis has been suppressed with timopt=0



================================================================================

 Suggested references for the acknowledgment of ABINIT usage.

 The users of ABINIT have little formal obligations with respect to the ABINIT group
 (those specified in the GNU General Public License, http://www.gnu.org/copyleft/gpl.txt).
 However, it is common practice in the scientific literature,
 to acknowledge the efforts of people that have made the research possible.
 In this spirit, please find below suggested citations of work written by ABINIT developers,
 corresponding to implementations inside of ABINIT that you have used in the present run.
 Note also that it will be of great value to readers of publications presenting these results,
 to read papers enabling them to understand the theoretical formalism and details
 of the ABINIT implementation.
 For information on why they are suggested, see also https://docs.abinit.org/theory/acknowledgments.
-
- [1] Precise effective masses from density functional perturbation theory
- J. Laflamme Janssen, Y. Gillet, S. Ponce, A. Martin, M. Torrent, and X. Gonze. Phys. Rev. B 93, 205147 (2016)
- Comment: in case the DFPT prediction of effective masses is used.
- Strong suggestion to cite this paper in your publications.
- DOI and bibtex: see https://docs.abinit.org/theory/bibliography/#laflamme2016
-
- [2] Libxc: A library of exchange and correlation functionals for density functional theory.
- M.A.L. Marques, M.J.T. Oliveira, T. Burnus, Computer Physics Communications 183, 2227 (2012).
- Comment: to be cited when LibXC is used (negative value of ixc)
- Strong suggestion to cite this paper.
- DOI and bibtex: see https://docs.abinit.org/theory/bibliography/#marques2012
-
- [3] The Abinit project: Impact, environment and recent developments.
- Computer Phys. Comm. 248, 107042 (2020).
- X.Gonze, B. Amadon, G. Antonius, F.Arnardi, L.Baguet, J.-M.Beuken,
- J.Bieder, F.Bottin, J.Bouchet, E.Bousquet, N.Brouwer, F.Bruneval,
- G.Brunin, T.Cavignac, J.-B. Charraud, Wei Chen, M.Cote, S.Cottenier,
- J.Denier, G.Geneste, Ph.Ghosez, M.Giantomassi, Y.Gillet, O.Gingras,
- D.R.Hamann, G.Hautier, Xu He, N.Helbig, N.Holzwarth, Y.Jia, F.Jollet,
- W.Lafargue-Dit-Hauret, K.Lejaeghere, M.A.L.Marques, A.Martin, C.Martins,
- H.P.C. Miranda, F.Naccarato, K. Persson, G.Petretto, V.Planes, Y.Pouillon,
- S.Prokhorenko, F.Ricci, G.-M.Rignanese, A.H.Romero, M.M.Schmitt, M.Torrent,
- M.J.van Setten, B.Van Troeye, M.J.Verstraete, G.Zerah and J.W.Zwanzig
- Comment: the fifth generic paper describing the ABINIT project.
- Note that a version of this paper, that is not formatted for Computer Phys. Comm. 
- is available at https://www.abinit.org/sites/default/files/ABINIT20.pdf .
- The licence allows the authors to put it on the Web.
- DOI and bibtex: see https://docs.abinit.org/theory/bibliography/#gonze2020
-
- [4] First-principles responses of solids to atomic displacements and homogeneous electric fields:,
- implementation of a conjugate-gradient algorithm. X. Gonze, Phys. Rev. B55, 10337 (1997).
- Comment: Non-vanishing rfphon and/or rfelfd, in the norm-conserving case.
- DOI and bibtex: see https://docs.abinit.org/theory/bibliography/#gonze1997
-
- [5] Dynamical matrices, Born effective charges, dielectric permittivity tensors, and ,
- interatomic force constants from density-functional perturbation theory,
- X. Gonze and C. Lee, Phys. Rev. B55, 10355 (1997).
- Comment: Non-vanishing rfphon and/or rfelfd, in the norm-conserving case.
- DOI and bibtex: see https://docs.abinit.org/theory/bibliography/#gonze1997a
-
- [6] Optimized norm-conserving Vanderbilt pseudopotentials.
- D.R. Hamann, Phys. Rev. B 88, 085117 (2013).
- Comment: Some pseudopotential generated using the ONCVPSP code were used.
- DOI and bibtex: see https://docs.abinit.org/theory/bibliography/#hamann2013
-
- [7] ABINIT: Overview, and focus on selected capabilities
- J. Chem. Phys. 152, 124102 (2020).
- A. Romero, D.C. Allan, B. Amadon, G. Antonius, T. Applencourt, L.Baguet,
- J.Bieder, F.Bottin, J.Bouchet, E.Bousquet, F.Bruneval,
- G.Brunin, D.Caliste, M.Cote,
- J.Denier, C. Dreyer, Ph.Ghosez, M.Giantomassi, Y.Gillet, O.Gingras,
- D.R.Hamann, G.Hautier, F.Jollet, G. Jomard,
- A.Martin, 
- H.P.C. Miranda, F.Naccarato, G.Petretto, N.A. Pike, V.Planes,
- S.Prokhorenko, T. Rangel, F.Ricci, G.-M.Rignanese, M.Royo, M.Stengel, M.Torrent,
- M.J.van Setten, B.Van Troeye, M.J.Verstraete, J.Wiktor, J.W.Zwanziger, and X.Gonze.
- Comment: a global overview of ABINIT, with focus on selected capabilities .
- Note that a version of this paper, that is not formatted for J. Chem. Phys 
- is available at https://www.abinit.org/sites/default/files/ABINIT20_JPC.pdf .
- The licence allows the authors to put it on the Web.
- DOI and bibtex: see https://docs.abinit.org/theory/bibliography/#romero2020
-
- [8] Recent developments in the ABINIT software package.
- Computer Phys. Comm. 205, 106 (2016).
- X.Gonze, F.Jollet, F.Abreu Araujo, D.Adams, B.Amadon, T.Applencourt,
- C.Audouze, J.-M.Beuken, J.Bieder, A.Bokhanchuk, E.Bousquet, F.Bruneval
- D.Caliste, M.Cote, F.Dahm, F.Da Pieve, M.Delaveau, M.Di Gennaro,
- B.Dorado, C.Espejo, G.Geneste, L.Genovese, A.Gerossier, M.Giantomassi,
- Y.Gillet, D.R.Hamann, L.He, G.Jomard, J.Laflamme Janssen, S.Le Roux,
- A.Levitt, A.Lherbier, F.Liu, I.Lukacevic, A.Martin, C.Martins,
- M.J.T.Oliveira, S.Ponce, Y.Pouillon, T.Rangel, G.-M.Rignanese,
- A.H.Romero, B.Rousseau, O.Rubel, A.A.Shukri, M.Stankovski, M.Torrent,
- M.J.Van Setten, B.Van Troeye, M.J.Verstraete, D.Waroquier, J.Wiktor,
- B.Xu, A.Zhou, J.W.Zwanziger.
- Comment: the fourth generic paper describing the ABINIT project.
- Note that a version of this paper, that is not formatted for Computer Phys. Comm. 
- is available at https://www.abinit.org/sites/default/files/ABINIT16.pdf .
- The licence allows the authors to put it on the Web.
- DOI and bibtex: see https://docs.abinit.org/theory/bibliography/#gonze2016
-
- Proc.   0 individual time (sec): cpu=         28.1  wall=         32.5
 
================================================================================
 
 Calculation completed.
.Delivered  14 WARNINGs and   9 COMMENTs to log file.
+Overall time at end (sec) : cpu=         28.1  wall=         32.5
