
.Version 9.5.1 of ABINIT 
.(MPI version, prepared for a x86_64_linux_intel19.1 computer) 

.Copyright (C) 1998-2021 ABINIT group . 
 ABINIT comes with ABSOLUTELY NO WARRANTY.
 It is free software, and you are welcome to redistribute it
 under certain conditions (GNU General Public License,
 see ~abinit/COPYING or http://www.gnu.org/copyleft/gpl.txt).

 ABINIT is a project of the Universite Catholique de Louvain,
 Corning Inc. and other collaborators, see ~abinit/doc/developers/contributors.txt .
 Please read https://docs.abinit.org/theory/acknowledgments for suggested
 acknowledgments of the ABINIT effort.
 For more information, see https://www.abinit.org .

.Starting date : Sun 25 Apr 2021.
- ( at 17h21 )
  
- input  file    -> /scratch/users/j/a/jabreu/flow_simple2/flow/w195/t1/run.abi
- output file    -> /scratch/users/j/a/jabreu/flow_simple2/flow/w195/t1/run.abo
- root for input  files -> /scratch/users/j/a/jabreu/flow_simple2/flow/w195/t1/indata/in
- root for output files -> /scratch/users/j/a/jabreu/flow_simple2/flow/w195/t1/outdata/out
 
 
 Symmetries : space group Fm -3 m (#225); Bravais cF (face-center cubic)
================================================================================
 Values of the parameters that define the memory need of the present run (RF).
     intxc =       0      iscf =       7    lmnmax =      18     lnmax =       6
     mgfft =      54  mpssoang =       3    mqgrid =    3001     natom =       2
  nloc_mem =       1    nspden =       1   nspinor =       1    nsppol =       1
      nsym =      48    n1xccc =    2501    ntypat =       2    occopt =       1
   xclevel =       2
-    mband =          17        mffmem =           1         mkmem =           1
-   mkqmem =           1        mk1mem =           1           mpw =        6423
      nfft =      157464          nkpt =           1
================================================================================
P This job should need less than                      52.179 Mbytes of memory.
  Rough estimation (10% accuracy) of disk space for files :
_ WF disk file :      1.668 Mbytes ; DEN or POT disk file :      1.203 Mbytes.
================================================================================
 
--------------------------------------------------------------------------------
------------- Echo of variables that govern the present computation ------------
--------------------------------------------------------------------------------
-
- outvars: echo of selected default values                                      
-   iomode0 =  0 , fftalg0 =512 , wfoptalg0 =  0
-
- outvars: echo of global parameters not present in the input file              
-  max_nthreads =    0
-
 -outvars: echo values of preprocessed input variables --------
            acell      1.0000000000E+00  1.0000000000E+00  1.0000000000E+00 Bohr
              amu      8.54678000E+01  1.26904470E+02
             ecut      3.50000000E+01 Hartree
-          fftalg         512
           irdden           1
           irdwfk           1
           istwfk        1
              ixc     -116133
           kptopt           0
P           mkmem           1
P          mkqmem           1
P          mk1mem           1
            natom           2
            nband          17
           nbdbuf           4
            ngfft          54      54      54
             nkpt           1
            nstep         100
             nsym          48
           ntypat           2
              occ      2.000000  2.000000  2.000000  2.000000  2.000000  2.000000
                       2.000000  2.000000  0.000000  0.000000  0.000000  0.000000
                       0.000000  0.000000  0.000000  0.000000  0.000000
        optdriver           1
            prtwf          -1
            rfdir           1       1       1
           rfelfd           2
            rprim      8.4411695853E+00  0.0000000000E+00  4.8735115324E+00
                       2.8137231951E+00  7.9584110066E+00  4.8735115324E+00
                       0.0000000000E+00  0.0000000000E+00  9.7470230647E+00
          spgroup         225
           symrel      1  0  0   0  1  0   0  0  1      -1  0  0   0 -1  0   0  0 -1
                       0 -1  1   0 -1  0   1 -1  0       0  1 -1   0  1  0  -1  1  0
                      -1  0  0  -1  0  1  -1  1  0       1  0  0   1  0 -1   1 -1  0
                       0  1 -1   1  0 -1   0  0 -1       0 -1  1  -1  0  1   0  0  1
                      -1  0  0  -1  1  0  -1  0  1       1  0  0   1 -1  0   1  0 -1
                       0 -1  1   1 -1  0   0 -1  0       0  1 -1  -1  1  0   0  1  0
                       1  0  0   0  0  1   0  1  0      -1  0  0   0  0 -1   0 -1  0
                       0  1 -1   0  0 -1   1  0 -1       0 -1  1   0  0  1  -1  0  1
                      -1  0  1  -1  1  0  -1  0  0       1  0 -1   1 -1  0   1  0  0
                       0 -1  0   1 -1  0   0 -1  1       0  1  0  -1  1  0   0  1 -1
                       1  0 -1   0  0 -1   0  1 -1      -1  0  1   0  0  1   0 -1  1
                       0  1  0   0  0  1   1  0  0       0 -1  0   0  0 -1  -1  0  0
                       1  0 -1   0  1 -1   0  0 -1      -1  0  1   0 -1  1   0  0  1
                       0 -1  0   0 -1  1   1 -1  0       0  1  0   0  1 -1  -1  1  0
                      -1  0  1  -1  0  0  -1  1  0       1  0 -1   1  0  0   1 -1  0
                       0  1  0   1  0  0   0  0  1       0 -1  0  -1  0  0   0  0 -1
                       0  0 -1   0  1 -1   1  0 -1       0  0  1   0 -1  1  -1  0  1
                       1 -1  0   0 -1  1   0 -1  0      -1  1  0   0  1 -1   0  1  0
                       0  0  1   1  0  0   0  1  0       0  0 -1  -1  0  0   0 -1  0
                      -1  1  0  -1  0  0  -1  0  1       1 -1  0   1  0  0   1  0 -1
                       0  0  1   0  1  0   1  0  0       0  0 -1   0 -1  0  -1  0  0
                       1 -1  0   0 -1  0   0 -1  1      -1  1  0   0  1  0   0  1 -1
                       0  0 -1   1  0 -1   0  1 -1       0  0  1  -1  0  1   0 -1  1
                      -1  1  0  -1  0  1  -1  0  0       1 -1  0   1  0 -1   1  0  0
           tolwfr      1.00000000E-20
            typat      1  2
           useylm           1
           xangst      0.0000000000E+00  0.0000000000E+00  0.0000000000E+00
                       2.9779163723E+00  2.1057048606E+00  5.1579024575E+00
            xcart      0.0000000000E+00  0.0000000000E+00  0.0000000000E+00
                       5.6274463902E+00  3.9792055033E+00  9.7470230647E+00
             xred      0.0000000000E+00  0.0000000000E+00  0.0000000000E+00
                       5.0000000000E-01  5.0000000000E-01  5.0000000000E-01
            znucl       37.00000   53.00000
 
================================================================================
 
 chkinp: Checking input parameters for consistency.
 
================================================================================
== DATASET  1 ==================================================================
-   mpi_nproc: 1, omp_nthreads: -1 (-1 if OMP is not activated)
 

--- !DatasetInfo
iteration_state: {dtset: 1, }
dimensions: {natom: 2, nkpt: 1, mband: 17, nsppol: 1, nspinor: 1, nspden: 1, mpw: 6423, }
cutoff_energies: {ecut:  35.0, pawecutdg:  -1.0, }
electrons: {nelect:   1.60000000E+01, charge:   0.00000000E+00, occopt:   1.00000000E+00, tsmear:   1.00000000E-02, }
meta: {optdriver: 1, rfelfd: 2, }
...

 Real(R)+Recip(G) space primitive vectors, cartesian coordinates (Bohr,Bohr^-1):
 R(1)=  8.4411696  0.0000000  4.8735115  G(1)=  0.1184670 -0.0418844  0.0000000
 R(2)=  2.8137232  7.9584110  4.8735115  G(2)=  0.0000000  0.1256532  0.0000000
 R(3)=  0.0000000  0.0000000  9.7470231  G(3)= -0.0592335 -0.0418844  0.1025954
 Unit cell volume ucvol=  6.5478841E+02 bohr^3
 Angles (23,13,12)=  6.00000000E+01  6.00000000E+01  6.00000000E+01 degrees
 
 getcut: wavevector=  0.0000  0.0000  0.0000  ngfft=  54  54  54
         ecut(hartree)=     35.000   => boxcut(ratio)=   2.08100
 
--- Pseudopotential description ------------------------------------------------
- pspini: atom type   1  psp file is /scratch/users/j/a/jabreu/pseudos/PBEsol/Rb.psp8
- pspatm: opening atomic psp file    /scratch/users/j/a/jabreu/pseudos/PBEsol/Rb.psp8
- Rb    ONCVPSP-3.3.0  r_core=   1.71227   1.75361   1.90633
- 37.00000   9.00000    180112                znucl, zion, pspdat
    8 -116133    2    4       600   0.00000   pspcod,pspxc,lmax,lloc,mmax,r2well
    5.99000000000000    7.00000000000000    0.00000000000000   rchrg,fchrg,qchrg
     nproj     2     2     2
     extension_switch     1
  pspatm : epsatm=   34.48400912
         --- l  ekb(1:nproj) -->
             0    8.196957   -0.477221
             1    3.231347   -0.378736
             2   -1.047201    0.996637
 pspatm: atomic psp has been read  and splines computed
 
- pspini: atom type   2  psp file is /scratch/users/j/a/jabreu/pseudos/PBEsol/I.psp8
- pspatm: opening atomic psp file    /scratch/users/j/a/jabreu/pseudos/PBEsol/I.psp8
- I     ONCVPSP-3.3.0  r_core=   2.02042   2.17032   2.27639
- 53.00000   7.00000    180112                znucl, zion, pspdat
    8 -116133    2    4       600   0.00000   pspcod,pspxc,lmax,lloc,mmax,r2well
    5.99000000000000    4.00000000000000    0.00000000000000   rchrg,fchrg,qchrg
     nproj     2     2     2
     extension_switch     1
  pspatm : epsatm=   18.14229533
         --- l  ekb(1:nproj) -->
             0    6.015861    0.935228
             1    4.063749    0.754139
             2    4.149534    0.722940
 pspatm: atomic psp has been read  and splines computed
 
   8.42020871E+02                                ecore*ucvol(ha*bohr**3)
--------------------------------------------------------------------------------
 
-inwffil : will read wavefunctions from disk file /scratch/users/j/a/jabreu/flow_simple2/flow/w195/t1/indata/in_WFK
 
 ==>  initialize data related to q vector <== 
 
 The list of irreducible perturbations for this q vector is:
    1)    idir= 1    ipert=   3
    2)    idir= 2    ipert=   3
    3)    idir= 3    ipert=   3
 
================================================================================
 
--------------------------------------------------------------------------------
 Perturbation wavevector (in red.coord.)   0.000000  0.000000  0.000000
 Perturbation : derivative vs k along direction   1
 
 dfpt_looppert : COMMENT -
  In a d/dk calculation, iscf is set to -3 automatically.
 The set of symmetries contains only one element for this perturbation.
 symkpt : not enough symmetry to change the number of k points.
 
--------------------------------------------------------------------------------
 
-inwffil : will read wavefunctions from disk file /scratch/users/j/a/jabreu/flow_simple2/flow/w195/t1/indata/in_WFK
--------------------------------------------------------------------------------
 
 Initialisation of the first-order wave-functions :
  ireadwf=   0

--- !BeginCycle
iteration_state: {dtset: 1, }
solver: {iscf: 7, nstep: 100, nline: 4, wfoptalg: 0, }
tolerances: {tolwfr: 1.00E-20, }
...
 
     iter   2DEtotal(Ha)        deltaE(Ha) residm    vres2
-ETOT  1  -14.359594800367     -1.436E+01 4.553E-03 0.000E+00
 ETOT  2  -14.361984621901     -2.390E-03 2.020E-06 0.000E+00
 ETOT  3  -14.361986306770     -1.685E-06 4.361E-09 0.000E+00
 ETOT  4  -14.361986308354     -1.584E-09 3.242E-12 0.000E+00
 ETOT  5  -14.361986308356     -1.668E-12 5.056E-14 0.000E+00
 ETOT  6  -14.361986308356      4.263E-14 2.170E-16 0.000E+00
 ETOT  7  -14.361986308356     -4.263E-14 3.587E-18 0.000E+00
 ETOT  8  -14.361986308356      1.954E-14 1.533E-20 0.000E+00
 ETOT  9  -14.361986308356     -5.329E-15 9.464E-21 0.000E+00
 
 At SCF step    9   max residual=  9.46E-21 < tolwfr=  1.00E-20 =>converged.
================================================================================
 
 ----iterations are completed or convergence reached----
 
 dfpt_looppert: DFPT cycle converged with prtwf=-1. Will skip output of the 1st-order WFK file.
 dfpt_looppert : ek2=    1.9946053822E+01
          f-sum rule ratio=    1.3268072661E+00
 prteigrs : about to open file /scratch/users/j/a/jabreu/flow_simple2/flow/w195/t1/tmpdata/tmp_1WF1_EIG
 Expectation of eigenvalue derivatives (hartree) for nkpt=   1  k points:
  (in case of degenerate eigenvalues, averaged derivative)
 kpt#   1, nband= 17, wtk=  1.00000, kpt=  0.0000  0.0000  0.0000 (reduced coord)
  -0.00000   -0.00000   -0.00000   -0.00000   -0.00000    0.00000    0.00000    0.00000
   0.00000    0.00000    0.00000    0.00000    0.00000    0.00000   -0.00000   -0.00049
  -0.00098
 
 Eight components of 2nd-order total energy (hartree) are
 1,2,3: 0th-order hamiltonian combined with 1st-order wavefunctions
     kin0=   7.52753192E+00 eigvalue=   1.01265788E+00  local=  -4.33646382E+00
 4,5,6: 1st-order hamiltonian combined with 1st and 0th-order wfs
     kin1=  -2.64645691E+01  Hartree=   0.00000000E+00     xc=   0.00000000E+00
 7,8,9: eventually, occupation + non-local contributions
    edocc=   9.52107337E+00     enl0=   6.37186951E-01   enl1=  -2.25940348E+00
 1-9 gives the relaxation energy (to be shifted if some occ is /=2.0)
   erelax=  -1.43619863E+01
  No Ewald or frozen-wf contrib.: the relaxation energy is the total one
 2DEtotal=   -0.1436198631E+02 Ha. Also 2DEtotal=   -0.390809522429E+03 eV
    (  non-var. 2DEtotal :   -1.4361986308E+01 Ha)
 
--------------------------------------------------------------------------------
 Perturbation wavevector (in red.coord.)   0.000000  0.000000  0.000000
 Perturbation : derivative vs k along direction   2
 The set of symmetries contains only one element for this perturbation.
 symkpt : not enough symmetry to change the number of k points.
 
--------------------------------------------------------------------------------
 
-inwffil : will read wavefunctions from disk file /scratch/users/j/a/jabreu/flow_simple2/flow/w195/t1/indata/in_WFK
--------------------------------------------------------------------------------
 
 Initialisation of the first-order wave-functions :
  ireadwf=   0

--- !BeginCycle
iteration_state: {dtset: 1, }
solver: {iscf: 7, nstep: 100, nline: 4, wfoptalg: 0, }
tolerances: {tolwfr: 1.00E-20, }
...
 
     iter   2DEtotal(Ha)        deltaE(Ha) residm    vres2
-ETOT  1  -14.358396320622     -1.436E+01 7.592E-03 0.000E+00
 ETOT  2  -14.361991426411     -3.595E-03 3.000E-06 0.000E+00
 ETOT  3  -14.361993669987     -2.244E-06 5.169E-09 0.000E+00
 ETOT  4  -14.361993671819     -1.832E-09 1.109E-11 0.000E+00
 ETOT  5  -14.361993671821     -1.652E-12 2.972E-14 0.000E+00
 ETOT  6  -14.361993671821      2.487E-14 6.155E-16 0.000E+00
 ETOT  7  -14.361993671821     -4.619E-14 1.882E-18 0.000E+00
 ETOT  8  -14.361993671821      7.105E-15 3.934E-20 0.000E+00
 ETOT  9  -14.361993671821      1.776E-15 8.995E-21 0.000E+00
 
 At SCF step    9   max residual=  8.99E-21 < tolwfr=  1.00E-20 =>converged.
================================================================================
 
 ----iterations are completed or convergence reached----
 
 dfpt_looppert: DFPT cycle converged with prtwf=-1. Will skip output of the 1st-order WFK file.
 dfpt_looppert : ek2=    1.9946053821E+01
          f-sum rule ratio=    1.3268079432E+00
 prteigrs : about to open file /scratch/users/j/a/jabreu/flow_simple2/flow/w195/t1/tmpdata/tmp_1WF1_EIG
 Expectation of eigenvalue derivatives (hartree) for nkpt=   1  k points:
  (in case of degenerate eigenvalues, averaged derivative)
 kpt#   1, nband= 17, wtk=  1.00000, kpt=  0.0000  0.0000  0.0000 (reduced coord)
  -0.00000    0.00000    0.00000    0.00000    0.00000   -0.00000   -0.00000   -0.00000
  -0.00000    0.00000    0.00000    0.00000   -0.00000   -0.00000    0.00000   -0.00157
   0.00262
 
 Eight components of 2nd-order total energy (hartree) are
 1,2,3: 0th-order hamiltonian combined with 1st-order wavefunctions
     kin0=   7.52291431E+00 eigvalue=   1.01114648E+00  local=  -4.33239165E+00
 4,5,6: 1st-order hamiltonian combined with 1st and 0th-order wfs
     kin1=  -2.64645826E+01  Hartree=   0.00000000E+00     xc=   0.00000000E+00
 7,8,9: eventually, occupation + non-local contributions
    edocc=   9.52341090E+00     enl0=   6.36913629E-01   enl1=  -2.25940470E+00
 1-9 gives the relaxation energy (to be shifted if some occ is /=2.0)
   erelax=  -1.43619937E+01
  No Ewald or frozen-wf contrib.: the relaxation energy is the total one
 2DEtotal=   -0.1436199367E+02 Ha. Also 2DEtotal=   -0.390809722799E+03 eV
    (  non-var. 2DEtotal :   -1.4361993672E+01 Ha)
 
--------------------------------------------------------------------------------
 Perturbation wavevector (in red.coord.)   0.000000  0.000000  0.000000
 Perturbation : derivative vs k along direction   3
 The set of symmetries contains only one element for this perturbation.
 symkpt : not enough symmetry to change the number of k points.
 
--------------------------------------------------------------------------------
 
-inwffil : will read wavefunctions from disk file /scratch/users/j/a/jabreu/flow_simple2/flow/w195/t1/indata/in_WFK
--------------------------------------------------------------------------------
 
 Initialisation of the first-order wave-functions :
  ireadwf=   0

--- !BeginCycle
iteration_state: {dtset: 1, }
solver: {iscf: 7, nstep: 100, nline: 4, wfoptalg: 0, }
tolerances: {tolwfr: 1.00E-20, }
...
 
     iter   2DEtotal(Ha)        deltaE(Ha) residm    vres2
-ETOT  1  -14.359598849727     -1.436E+01 4.948E-03 0.000E+00
 ETOT  2  -14.361984110953     -2.385E-03 2.184E-06 0.000E+00
 ETOT  3  -14.361985784404     -1.673E-06 4.746E-09 0.000E+00
 ETOT  4  -14.361985785967     -1.563E-09 2.168E-11 0.000E+00
 ETOT  5  -14.361985785968     -1.648E-12 8.355E-14 0.000E+00
 ETOT  6  -14.361985785968      2.842E-14 1.510E-15 0.000E+00
 ETOT  7  -14.361985785968      0.000E+00 6.323E-18 0.000E+00
 ETOT  8  -14.361985785968      5.329E-15 1.265E-19 0.000E+00
 ETOT  9  -14.361985785968      0.000E+00 9.658E-21 0.000E+00
 
 At SCF step    9   max residual=  9.66E-21 < tolwfr=  1.00E-20 =>converged.
================================================================================
 
 ----iterations are completed or convergence reached----
 
 dfpt_looppert: DFPT cycle converged with prtwf=-1. Will skip output of the 1st-order WFK file.
 dfpt_looppert : ek2=    1.9946053822E+01
          f-sum rule ratio=    1.3268071979E+00
 prteigrs : about to open file /scratch/users/j/a/jabreu/flow_simple2/flow/w195/t1/tmpdata/tmp_1WF1_EIG
 Expectation of eigenvalue derivatives (hartree) for nkpt=   1  k points:
  (in case of degenerate eigenvalues, averaged derivative)
 kpt#   1, nband= 17, wtk=  1.00000, kpt=  0.0000  0.0000  0.0000 (reduced coord)
   0.00000   -0.00000   -0.00000   -0.00000   -0.00000    0.00000    0.00000    0.00000
   0.00000   -0.00000   -0.00000   -0.00000    0.00000    0.00000    0.00000    0.00034
   0.00358
 
 Eight components of 2nd-order total energy (hartree) are
 1,2,3: 0th-order hamiltonian combined with 1st-order wavefunctions
     kin0=   7.52781867E+00 eigvalue=   1.01276007E+00  local=  -4.33672323E+00
 4,5,6: 1st-order hamiltonian combined with 1st and 0th-order wfs
     kin1=  -2.64645678E+01  Hartree=   0.00000000E+00     xc=   0.00000000E+00
 7,8,9: eventually, occupation + non-local contributions
    edocc=   9.52092518E+00     enl0=   6.37205096E-01   enl1=  -2.25940379E+00
 1-9 gives the relaxation energy (to be shifted if some occ is /=2.0)
   erelax=  -1.43619858E+01
  No Ewald or frozen-wf contrib.: the relaxation energy is the total one
 2DEtotal=   -0.1436198579E+02 Ha. Also 2DEtotal=   -0.390809508214E+03 eV
    (  non-var. 2DEtotal :   -1.4361985786E+01 Ha)
 
 CALCULATION OF EFFECTIVE MASSES
 NOTE : Additional infos (eff. mass eigenvalues, eigenvectors and, if degenerate, average mass) are available in stdout.

 COMMENTS: 
 - At k-point ( 0.000, 0.000, 0.000), bands     6 through     8
   are DEGENERATE (effective mass tensor is therefore not defined).
   See Section IIIB Eqs. (67)-(70) and Appendix E of PRB 93 205147 (2016).
 - Angular average effective mass for Frohlich model is to be averaged over degenerate bands. See later.
 - Associated theta integrals calculated with ntheta=   1000 points.

 K-point ( 0.000, 0.000, 0.000) | band =     6
 Transport equivalent effective mass tensor:
             -0.4926517303             -0.0000002035             -0.0000000525
             -0.0000002035             -0.4926510272              0.0000000464
             -0.0000000525              0.0000000464             -0.4926514627
 Transport equivalent effective mass tensor eigenvalues:
             -0.4926517896             -0.4926514650             -0.4926509657
 Angular average effective mass 1/(<1/m>)=  -0.4819189952
 Angular average effective mass for Frohlich model (<m**0.5>)**2=  -0.4826630733
 Effective masses along directions: (cart. coord. / red. coord. -> eff. mass)
    1:   1.000000  0.000000  0.000000 /   0.948683  0.316228  0.000000 ->  -0.4937580224
    2:   0.000000  1.000000  0.000000 /   0.000000  1.000000  0.000000 ->  -0.5192178935
    3:   0.000000  0.000000  1.000000 /   0.408248  0.408248  0.816497 ->  -0.4962688614
    4:   0.577350  0.577350  0.577350 /   0.585539  0.688047  0.428644 ->  -0.4949819122
    5:   0.000000  0.707107  0.707107 /   0.289489  0.762222  0.578977 ->  -0.4679013766
    6:   0.707107  0.000000  0.707107 /   0.731423  0.422287  0.535439 ->  -0.4950026327
    7:   0.707107  0.707107  0.000000 /   0.616798  0.787122  0.000000 ->  -0.4432472969

 K-point ( 0.000, 0.000, 0.000) | band =     7
 Transport equivalent effective mass tensor:
             -3.0332965282             -0.0000063611             -0.0000009310
             -0.0000063611             -3.0332835866              0.0000017583
             -0.0000009310              0.0000017583             -3.0332804760
 Transport equivalent effective mass tensor eigenvalues:
             -3.0332991334             -3.0332827249             -3.0332787326
 Angular average effective mass 1/(<1/m>)=  -2.1483479891
 Angular average effective mass for Frohlich model (<m**0.5>)**2=  -2.1923527281
 Effective masses along directions: (cart. coord. / red. coord. -> eff. mass)
    1:   1.000000  0.000000  0.000000 /   0.948683  0.316228  0.000000 ->  -2.1399743062
    2:   0.000000  1.000000  0.000000 /   0.000000  1.000000  0.000000 ->  -2.0940395500
    3:   0.000000  0.000000  1.000000 /   0.408248  0.408248  0.816497 ->  -1.7648814554
    4:   0.577350  0.577350  0.577350 /   0.585539  0.688047  0.428644 ->  -2.0191907458
    5:   0.000000  0.707107  0.707107 /   0.289489  0.762222  0.578977 ->  -2.2825145393
    6:   0.707107  0.000000  0.707107 /   0.731423  0.422287  0.535439 ->  -1.8912269397
    7:   0.707107  0.707107  0.000000 /   0.616798  0.787122  0.000000 ->  -3.1453725661

 K-point ( 0.000, 0.000, 0.000) | band =     8
 Transport equivalent effective mass tensor:
             -3.6847898900              0.0000121049              0.0000025503
              0.0000121049             -3.6847786266             -0.0000020153
              0.0000025503             -0.0000020153             -3.6848016686
 Transport equivalent effective mass tensor eigenvalues:
             -3.6848034594             -3.6847958218             -3.6847709039
 Angular average effective mass 1/(<1/m>)=  -2.9364206621
 Angular average effective mass for Frohlich model (<m**0.5>)**2=  -2.9681179853
 Effective masses along directions: (cart. coord. / red. coord. -> eff. mass)
    1:   1.000000  0.000000  0.000000 /   0.948683  0.316228  0.000000 ->  -2.5741322741
    2:   0.000000  1.000000  0.000000 /   0.000000  1.000000  0.000000 ->  -2.0940429779
    3:   0.000000  0.000000  1.000000 /   0.408248  0.408248  0.816497 ->  -3.3398424770
    4:   0.577350  0.577350  0.577350 /   0.585539  0.688047  0.428644 ->  -2.7356993436
    5:   0.000000  0.707107  0.707107 /   0.289489  0.762222  0.578977 ->  -3.2706645130
    6:   0.707107  0.000000  0.707107 /   0.731423  0.422287  0.535439 ->  -3.0110332130
    7:   0.707107  0.707107  0.000000 /   0.616798  0.787122  0.000000 ->  -3.2567365577

 Angular average effective mass for Frohlich model, averaged over degenerate bands.
 Value of     (<<m**0.5>>)**2 =     1.688459E+00
 Absolute Value of <<m**0.5>> =     1.299407E+00


 K-point ( 0.000, 0.000, 0.000) | band =     9
 Effective mass tensor:
              0.3219694008              0.0000000001             -0.0000000024
              0.0000000001              0.3219694027              0.0000000008
             -0.0000000024              0.0000000008              0.3219694079
 Effective mass tensor eigenvalues:
              0.3219694000              0.3219694026              0.3219694087
 Angular average effective mass 1/(<1/m>)=   0.3219694038
 Angular average effective mass for Frohlich model (<m**0.5>)**2=   0.3219694038
 Effective masses along directions: (cart. coord. / red. coord. -> eff. mass)
    1:   1.000000  0.000000  0.000000 /   0.948683  0.316228  0.000000 ->   0.3219694008
    2:   0.000000  1.000000  0.000000 /   0.000000  1.000000  0.000000 ->   0.3219694027
    3:   0.000000  0.000000  1.000000 /   0.408248  0.408248  0.816497 ->   0.3219694079
    4:   0.577350  0.577350  0.577350 /   0.585539  0.688047  0.428644 ->   0.3219694027
    5:   0.000000  0.707107  0.707107 /   0.289489  0.762222  0.578977 ->   0.3219694060
    6:   0.707107  0.000000  0.707107 /   0.731423  0.422287  0.535439 ->   0.3219694019
    7:   0.707107  0.707107  0.000000 /   0.616798  0.787122  0.000000 ->   0.3219694018

 END OF EFFECTIVE MASSES SECTION

================================================================================
 
 ---- first-order wavefunction calculations are completed ----
 
 
 Total localisation tensor (bohr^2) in cartesian coordinates
  WARNING : still subject to testing - especially symmetries.
      direction              matrix element
   alpha     beta       real part   imaginary part
     1        1       2.9012691332    0.0000000000
     1        2       0.8206032071    0.0000000000
     1        3       2.0100583715    0.0000000000
     2        1       0.8206032071    0.0000000000
     2        2       2.3210163696    0.0000000000
     2        3       1.4213264475    0.0000000000
     3        1       2.0100583715    0.0000000000
     3        2       1.4213264475    0.0000000000
     3        3       5.2222846681    0.0000000000
 
 respfn : d/dk was computed, but no 2DTE, so no DDB output.
 
== END DATASET(S) ==============================================================
================================================================================
  
 -outvars: echo values of variables after computation  --------
            acell      1.0000000000E+00  1.0000000000E+00  1.0000000000E+00 Bohr
              amu      8.54678000E+01  1.26904470E+02
             ecut      3.50000000E+01 Hartree
           etotal     -1.4361985786E+01
            fcart      0.0000000000E+00  0.0000000000E+00  0.0000000000E+00
                       0.0000000000E+00  0.0000000000E+00  0.0000000000E+00
-          fftalg         512
           irdden           1
           irdwfk           1
           istwfk        1
              ixc     -116133
           kptopt           0
P           mkmem           1
P          mkqmem           1
P          mk1mem           1
            natom           2
            nband          17
           nbdbuf           4
            ngfft          54      54      54
             nkpt           1
            nstep         100
             nsym          48
           ntypat           2
              occ      2.000000  2.000000  2.000000  2.000000  2.000000  2.000000
                       2.000000  2.000000  0.000000  0.000000  0.000000  0.000000
                       0.000000  0.000000  0.000000  0.000000  0.000000
        optdriver           1
            prtwf          -1
            rfdir           1       1       1
           rfelfd           2
            rprim      8.4411695853E+00  0.0000000000E+00  4.8735115324E+00
                       2.8137231951E+00  7.9584110066E+00  4.8735115324E+00
                       0.0000000000E+00  0.0000000000E+00  9.7470230647E+00
          spgroup         225
           strten      0.0000000000E+00  0.0000000000E+00  0.0000000000E+00
                       0.0000000000E+00  0.0000000000E+00  0.0000000000E+00
           symrel      1  0  0   0  1  0   0  0  1      -1  0  0   0 -1  0   0  0 -1
                       0 -1  1   0 -1  0   1 -1  0       0  1 -1   0  1  0  -1  1  0
                      -1  0  0  -1  0  1  -1  1  0       1  0  0   1  0 -1   1 -1  0
                       0  1 -1   1  0 -1   0  0 -1       0 -1  1  -1  0  1   0  0  1
                      -1  0  0  -1  1  0  -1  0  1       1  0  0   1 -1  0   1  0 -1
                       0 -1  1   1 -1  0   0 -1  0       0  1 -1  -1  1  0   0  1  0
                       1  0  0   0  0  1   0  1  0      -1  0  0   0  0 -1   0 -1  0
                       0  1 -1   0  0 -1   1  0 -1       0 -1  1   0  0  1  -1  0  1
                      -1  0  1  -1  1  0  -1  0  0       1  0 -1   1 -1  0   1  0  0
                       0 -1  0   1 -1  0   0 -1  1       0  1  0  -1  1  0   0  1 -1
                       1  0 -1   0  0 -1   0  1 -1      -1  0  1   0  0  1   0 -1  1
                       0  1  0   0  0  1   1  0  0       0 -1  0   0  0 -1  -1  0  0
                       1  0 -1   0  1 -1   0  0 -1      -1  0  1   0 -1  1   0  0  1
                       0 -1  0   0 -1  1   1 -1  0       0  1  0   0  1 -1  -1  1  0
                      -1  0  1  -1  0  0  -1  1  0       1  0 -1   1  0  0   1 -1  0
                       0  1  0   1  0  0   0  0  1       0 -1  0  -1  0  0   0  0 -1
                       0  0 -1   0  1 -1   1  0 -1       0  0  1   0 -1  1  -1  0  1
                       1 -1  0   0 -1  1   0 -1  0      -1  1  0   0  1 -1   0  1  0
                       0  0  1   1  0  0   0  1  0       0  0 -1  -1  0  0   0 -1  0
                      -1  1  0  -1  0  0  -1  0  1       1 -1  0   1  0  0   1  0 -1
                       0  0  1   0  1  0   1  0  0       0  0 -1   0 -1  0  -1  0  0
                       1 -1  0   0 -1  0   0 -1  1      -1  1  0   0  1  0   0  1 -1
                       0  0 -1   1  0 -1   0  1 -1       0  0  1  -1  0  1   0 -1  1
                      -1  1  0  -1  0  1  -1  0  0       1 -1  0   1  0 -1   1  0  0
           tolwfr      1.00000000E-20
            typat      1  2
           useylm           1
           xangst      0.0000000000E+00  0.0000000000E+00  0.0000000000E+00
                       2.9779163723E+00  2.1057048606E+00  5.1579024575E+00
            xcart      0.0000000000E+00  0.0000000000E+00  0.0000000000E+00
                       5.6274463902E+00  3.9792055033E+00  9.7470230647E+00
             xred      0.0000000000E+00  0.0000000000E+00  0.0000000000E+00
                       5.0000000000E-01  5.0000000000E-01  5.0000000000E-01
            znucl       37.00000   53.00000
 
================================================================================


- Timing analysis has been suppressed with timopt=0



================================================================================

 Suggested references for the acknowledgment of ABINIT usage.

 The users of ABINIT have little formal obligations with respect to the ABINIT group
 (those specified in the GNU General Public License, http://www.gnu.org/copyleft/gpl.txt).
 However, it is common practice in the scientific literature,
 to acknowledge the efforts of people that have made the research possible.
 In this spirit, please find below suggested citations of work written by ABINIT developers,
 corresponding to implementations inside of ABINIT that you have used in the present run.
 Note also that it will be of great value to readers of publications presenting these results,
 to read papers enabling them to understand the theoretical formalism and details
 of the ABINIT implementation.
 For information on why they are suggested, see also https://docs.abinit.org/theory/acknowledgments.
-
- [1] Precise effective masses from density functional perturbation theory
- J. Laflamme Janssen, Y. Gillet, S. Ponce, A. Martin, M. Torrent, and X. Gonze. Phys. Rev. B 93, 205147 (2016)
- Comment: in case the DFPT prediction of effective masses is used.
- Strong suggestion to cite this paper in your publications.
- DOI and bibtex: see https://docs.abinit.org/theory/bibliography/#laflamme2016
-
- [2] Libxc: A library of exchange and correlation functionals for density functional theory.
- M.A.L. Marques, M.J.T. Oliveira, T. Burnus, Computer Physics Communications 183, 2227 (2012).
- Comment: to be cited when LibXC is used (negative value of ixc)
- Strong suggestion to cite this paper.
- DOI and bibtex: see https://docs.abinit.org/theory/bibliography/#marques2012
-
- [3] The Abinit project: Impact, environment and recent developments.
- Computer Phys. Comm. 248, 107042 (2020).
- X.Gonze, B. Amadon, G. Antonius, F.Arnardi, L.Baguet, J.-M.Beuken,
- J.Bieder, F.Bottin, J.Bouchet, E.Bousquet, N.Brouwer, F.Bruneval,
- G.Brunin, T.Cavignac, J.-B. Charraud, Wei Chen, M.Cote, S.Cottenier,
- J.Denier, G.Geneste, Ph.Ghosez, M.Giantomassi, Y.Gillet, O.Gingras,
- D.R.Hamann, G.Hautier, Xu He, N.Helbig, N.Holzwarth, Y.Jia, F.Jollet,
- W.Lafargue-Dit-Hauret, K.Lejaeghere, M.A.L.Marques, A.Martin, C.Martins,
- H.P.C. Miranda, F.Naccarato, K. Persson, G.Petretto, V.Planes, Y.Pouillon,
- S.Prokhorenko, F.Ricci, G.-M.Rignanese, A.H.Romero, M.M.Schmitt, M.Torrent,
- M.J.van Setten, B.Van Troeye, M.J.Verstraete, G.Zerah and J.W.Zwanzig
- Comment: the fifth generic paper describing the ABINIT project.
- Note that a version of this paper, that is not formatted for Computer Phys. Comm. 
- is available at https://www.abinit.org/sites/default/files/ABINIT20.pdf .
- The licence allows the authors to put it on the Web.
- DOI and bibtex: see https://docs.abinit.org/theory/bibliography/#gonze2020
-
- [4] First-principles responses of solids to atomic displacements and homogeneous electric fields:,
- implementation of a conjugate-gradient algorithm. X. Gonze, Phys. Rev. B55, 10337 (1997).
- Comment: Non-vanishing rfphon and/or rfelfd, in the norm-conserving case.
- DOI and bibtex: see https://docs.abinit.org/theory/bibliography/#gonze1997
-
- [5] Dynamical matrices, Born effective charges, dielectric permittivity tensors, and ,
- interatomic force constants from density-functional perturbation theory,
- X. Gonze and C. Lee, Phys. Rev. B55, 10355 (1997).
- Comment: Non-vanishing rfphon and/or rfelfd, in the norm-conserving case.
- DOI and bibtex: see https://docs.abinit.org/theory/bibliography/#gonze1997a
-
- [6] Optimized norm-conserving Vanderbilt pseudopotentials.
- D.R. Hamann, Phys. Rev. B 88, 085117 (2013).
- Comment: Some pseudopotential generated using the ONCVPSP code were used.
- DOI and bibtex: see https://docs.abinit.org/theory/bibliography/#hamann2013
-
- [7] ABINIT: Overview, and focus on selected capabilities
- J. Chem. Phys. 152, 124102 (2020).
- A. Romero, D.C. Allan, B. Amadon, G. Antonius, T. Applencourt, L.Baguet,
- J.Bieder, F.Bottin, J.Bouchet, E.Bousquet, F.Bruneval,
- G.Brunin, D.Caliste, M.Cote,
- J.Denier, C. Dreyer, Ph.Ghosez, M.Giantomassi, Y.Gillet, O.Gingras,
- D.R.Hamann, G.Hautier, F.Jollet, G. Jomard,
- A.Martin, 
- H.P.C. Miranda, F.Naccarato, G.Petretto, N.A. Pike, V.Planes,
- S.Prokhorenko, T. Rangel, F.Ricci, G.-M.Rignanese, M.Royo, M.Stengel, M.Torrent,
- M.J.van Setten, B.Van Troeye, M.J.Verstraete, J.Wiktor, J.W.Zwanziger, and X.Gonze.
- Comment: a global overview of ABINIT, with focus on selected capabilities .
- Note that a version of this paper, that is not formatted for J. Chem. Phys 
- is available at https://www.abinit.org/sites/default/files/ABINIT20_JPC.pdf .
- The licence allows the authors to put it on the Web.
- DOI and bibtex: see https://docs.abinit.org/theory/bibliography/#romero2020
-
- [8] Recent developments in the ABINIT software package.
- Computer Phys. Comm. 205, 106 (2016).
- X.Gonze, F.Jollet, F.Abreu Araujo, D.Adams, B.Amadon, T.Applencourt,
- C.Audouze, J.-M.Beuken, J.Bieder, A.Bokhanchuk, E.Bousquet, F.Bruneval
- D.Caliste, M.Cote, F.Dahm, F.Da Pieve, M.Delaveau, M.Di Gennaro,
- B.Dorado, C.Espejo, G.Geneste, L.Genovese, A.Gerossier, M.Giantomassi,
- Y.Gillet, D.R.Hamann, L.He, G.Jomard, J.Laflamme Janssen, S.Le Roux,
- A.Levitt, A.Lherbier, F.Liu, I.Lukacevic, A.Martin, C.Martins,
- M.J.T.Oliveira, S.Ponce, Y.Pouillon, T.Rangel, G.-M.Rignanese,
- A.H.Romero, B.Rousseau, O.Rubel, A.A.Shukri, M.Stankovski, M.Torrent,
- M.J.Van Setten, B.Van Troeye, M.J.Verstraete, D.Waroquier, J.Wiktor,
- B.Xu, A.Zhou, J.W.Zwanziger.
- Comment: the fourth generic paper describing the ABINIT project.
- Note that a version of this paper, that is not formatted for Computer Phys. Comm. 
- is available at https://www.abinit.org/sites/default/files/ABINIT16.pdf .
- The licence allows the authors to put it on the Web.
- DOI and bibtex: see https://docs.abinit.org/theory/bibliography/#gonze2016
-
- Proc.   0 individual time (sec): cpu=         17.1  wall=         20.7
 
================================================================================
 
 Calculation completed.
.Delivered   6 WARNINGs and   5 COMMENTs to log file.
+Overall time at end (sec) : cpu=         17.1  wall=         20.7
