
.Version 9.5.1 of ABINIT 
.(MPI version, prepared for a x86_64_linux_intel19.1 computer) 

.Copyright (C) 1998-2021 ABINIT group . 
 ABINIT comes with ABSOLUTELY NO WARRANTY.
 It is free software, and you are welcome to redistribute it
 under certain conditions (GNU General Public License,
 see ~abinit/COPYING or http://www.gnu.org/copyleft/gpl.txt).

 ABINIT is a project of the Universite Catholique de Louvain,
 Corning Inc. and other collaborators, see ~abinit/doc/developers/contributors.txt .
 Please read https://docs.abinit.org/theory/acknowledgments for suggested
 acknowledgments of the ABINIT effort.
 For more information, see https://www.abinit.org .

.Starting date : Sun 25 Apr 2021.
- ( at 18h03 )
  
- input  file    -> /scratch/users/j/a/jabreu/flow_simple2/flow/w242/t1/run.abi
- output file    -> /scratch/users/j/a/jabreu/flow_simple2/flow/w242/t1/run.abo
- root for input  files -> /scratch/users/j/a/jabreu/flow_simple2/flow/w242/t1/indata/in
- root for output files -> /scratch/users/j/a/jabreu/flow_simple2/flow/w242/t1/outdata/out
 
 
 Symmetries : space group F-4 3 m (#216); Bravais cF (face-center cubic)
================================================================================
 Values of the parameters that define the memory need of the present run (RF).
     intxc =       0      iscf =       7    lmnmax =      18     lnmax =       6
     mgfft =      48  mpssoang =       3    mqgrid =    3001     natom =       2
  nloc_mem =       1    nspden =       1   nspinor =       1    nsppol =       1
      nsym =      24    n1xccc =    2501    ntypat =       2    occopt =       1
   xclevel =       2
-    mband =          27        mffmem =           1         mkmem =           1
-   mkqmem =           1        mk1mem =           1           mpw =        4909
      nfft =      110592          nkpt =           1
================================================================================
P This job should need less than                      40.862 Mbytes of memory.
  Rough estimation (10% accuracy) of disk space for files :
_ WF disk file :      2.024 Mbytes ; DEN or POT disk file :      0.846 Mbytes.
================================================================================
 
--------------------------------------------------------------------------------
------------- Echo of variables that govern the present computation ------------
--------------------------------------------------------------------------------
-
- outvars: echo of selected default values                                      
-   iomode0 =  0 , fftalg0 =512 , wfoptalg0 =  0
-
- outvars: echo of global parameters not present in the input file              
-  max_nthreads =    0
-
 -outvars: echo values of preprocessed input variables --------
            acell      1.0000000000E+00  1.0000000000E+00  1.0000000000E+00 Bohr
              amu      6.53900000E+01  1.27600000E+02
             ecut      4.20000000E+01 Hartree
-          fftalg         512
           irdden           1
           irdwfk           1
           istwfk        1
              ixc     -116133
           kptopt           0
P           mkmem           1
P          mkqmem           1
P          mk1mem           1
            natom           2
            nband          27
           nbdbuf           4
            ngfft          48      48      48
             nkpt           1
            nstep         100
             nsym          24
           ntypat           2
              occ      2.000000  2.000000  2.000000  2.000000  2.000000  2.000000
                       2.000000  2.000000  2.000000  2.000000  2.000000  2.000000
                       2.000000  2.000000  2.000000  2.000000  2.000000  2.000000
                       0.000000  0.000000  0.000000  0.000000  0.000000  0.000000
                       0.000000  0.000000  0.000000
        optdriver           1
            prtwf          -1
            rfdir           1       1       1
           rfelfd           2
            rprim      7.0222550091E+00  0.0000000000E+00  4.0543008198E+00
                       2.3407516697E+00  6.6206455149E+00  4.0543008198E+00
                       0.0000000000E+00  0.0000000000E+00  8.1086016397E+00
          spgroup         216
           symrel      1  0  0   0  1  0   0  0  1       0 -1  1   0 -1  0   1 -1  0
                      -1  0  0  -1  0  1  -1  1  0       0  1 -1   1  0 -1   0  0 -1
                      -1  0  0  -1  1  0  -1  0  1       0 -1  1   1 -1  0   0 -1  0
                       1  0  0   0  0  1   0  1  0       0  1 -1   0  0 -1   1  0 -1
                      -1  0  1  -1  1  0  -1  0  0       0 -1  0   1 -1  0   0 -1  1
                       1  0 -1   0  0 -1   0  1 -1       0  1  0   0  0  1   1  0  0
                       1  0 -1   0  1 -1   0  0 -1       0 -1  0   0 -1  1   1 -1  0
                      -1  0  1  -1  0  0  -1  1  0       0  1  0   1  0  0   0  0  1
                       0  0 -1   0  1 -1   1  0 -1       1 -1  0   0 -1  1   0 -1  0
                       0  0  1   1  0  0   0  1  0      -1  1  0  -1  0  0  -1  0  1
                       0  0  1   0  1  0   1  0  0       1 -1  0   0 -1  0   0 -1  1
                       0  0 -1   1  0 -1   0  1 -1      -1  1  0  -1  0  1  -1  0  0
           tolwfr      1.00000000E-20
            typat      1  2
           useylm           1
           xangst      0.0000000000E+00  0.0000000000E+00  0.0000000000E+00
                       3.7160173037E+00  2.6276210345E+00  6.4363307719E+00
            xcart      0.0000000000E+00  0.0000000000E+00  0.0000000000E+00
                       7.0222550091E+00  4.9654841362E+00  1.2162902459E+01
             xred      0.0000000000E+00  0.0000000000E+00  0.0000000000E+00
                       7.5000000000E-01  7.5000000000E-01  7.5000000000E-01
            znucl       30.00000   52.00000
 
================================================================================
 
 chkinp: Checking input parameters for consistency.
 
================================================================================
== DATASET  1 ==================================================================
-   mpi_nproc: 1, omp_nthreads: -1 (-1 if OMP is not activated)
 

--- !DatasetInfo
iteration_state: {dtset: 1, }
dimensions: {natom: 2, nkpt: 1, mband: 27, nsppol: 1, nspinor: 1, nspden: 1, mpw: 4909, }
cutoff_energies: {ecut:  42.0, pawecutdg:  -1.0, }
electrons: {nelect:   3.60000000E+01, charge:   0.00000000E+00, occopt:   1.00000000E+00, tsmear:   1.00000000E-02, }
meta: {optdriver: 1, rfelfd: 2, }
...

 Real(R)+Recip(G) space primitive vectors, cartesian coordinates (Bohr,Bohr^-1):
 R(1)=  7.0222550  0.0000000  4.0543008  G(1)=  0.1424044 -0.0503476  0.0000000
 R(2)=  2.3407517  6.6206455  4.0543008  G(2)=  0.0000000  0.1510427  0.0000000
 R(3)=  0.0000000  0.0000000  8.1086016  G(3)= -0.0712022 -0.0503476  0.1233258
 Unit cell volume ucvol=  3.7698398E+02 bohr^3
 Angles (23,13,12)=  6.00000000E+01  6.00000000E+01  6.00000000E+01 degrees
 
 getcut: wavevector=  0.0000  0.0000  0.0000  ngfft=  48  48  48
         ecut(hartree)=     42.000   => boxcut(ratio)=   2.02911
 
--- Pseudopotential description ------------------------------------------------
- pspini: atom type   1  psp file is /scratch/users/j/a/jabreu/pseudos/PBEsol/Zn.psp8
- pspatm: opening atomic psp file    /scratch/users/j/a/jabreu/pseudos/PBEsol/Zn.psp8
- Zn    ONCVPSP-3.3.0  r_core=   1.35823   1.66358   1.85211
- 30.00000  20.00000    180112                znucl, zion, pspdat
    8 -116133    2    4       600   0.00000   pspcod,pspxc,lmax,lloc,mmax,r2well
    5.99000000000000    2.50000000000000    0.00000000000000   rchrg,fchrg,qchrg
     nproj     2     2     2
     extension_switch     1
  pspatm : epsatm=   26.57343589
         --- l  ekb(1:nproj) -->
             0    2.830835   -1.519107
             1   -4.626739   -1.324150
             2   -6.948510   -2.555500
 pspatm: atomic psp has been read  and splines computed
 
- pspini: atom type   2  psp file is /scratch/users/j/a/jabreu/pseudos/PBEsol/Te.psp8
- pspatm: opening atomic psp file    /scratch/users/j/a/jabreu/pseudos/PBEsol/Te.psp8
- Te    ONCVPSP-3.3.0  r_core=   2.26547   1.91704   1.80604
- 52.00000  16.00000    180112                znucl, zion, pspdat
    8 -116133    2    4       600   0.00000   pspcod,pspxc,lmax,lloc,mmax,r2well
    5.99000000000000    5.00000000000000    0.00000000000000   rchrg,fchrg,qchrg
     nproj     2     2     2
     extension_switch     1
  pspatm : epsatm=   36.82679836
         --- l  ekb(1:nproj) -->
             0    6.345999    0.785432
             1    5.709019    1.070069
             2   -6.035173   -1.870937
 pspatm: atomic psp has been read  and splines computed
 
   2.28240843E+03                                ecore*ucvol(ha*bohr**3)
--------------------------------------------------------------------------------
 
-inwffil : will read wavefunctions from disk file /scratch/users/j/a/jabreu/flow_simple2/flow/w242/t1/indata/in_WFK
 
 ==>  initialize data related to q vector <== 
 
 The list of irreducible perturbations for this q vector is:
    1)    idir= 1    ipert=   3
    2)    idir= 2    ipert=   3
    3)    idir= 3    ipert=   3
 
================================================================================
 
--------------------------------------------------------------------------------
 Perturbation wavevector (in red.coord.)   0.000000  0.000000  0.000000
 Perturbation : derivative vs k along direction   1
 
 dfpt_looppert : COMMENT -
  In a d/dk calculation, iscf is set to -3 automatically.
 The set of symmetries contains only one element for this perturbation.
 symkpt : not enough symmetry to change the number of k points.
 
--------------------------------------------------------------------------------
 
-inwffil : will read wavefunctions from disk file /scratch/users/j/a/jabreu/flow_simple2/flow/w242/t1/indata/in_WFK
--------------------------------------------------------------------------------
 
 Initialisation of the first-order wave-functions :
  ireadwf=   0

--- !BeginCycle
iteration_state: {dtset: 1, }
solver: {iscf: 7, nstep: 100, nline: 4, wfoptalg: 0, }
tolerances: {tolwfr: 1.00E-20, }
...
 
     iter   2DEtotal(Ha)        deltaE(Ha) residm    vres2
-ETOT  1  -84.484779952040     -8.448E+01 4.064E-02 0.000E+00
 ETOT  2  -84.512045327440     -2.727E-02 8.707E-05 0.000E+00
 ETOT  3  -84.512150173437     -1.048E-04 4.295E-07 0.000E+00
 ETOT  4  -84.512150926286     -7.528E-07 4.259E-09 0.000E+00
 ETOT  5  -84.512150932513     -6.228E-09 2.887E-11 0.000E+00
 ETOT  6  -84.512150932567     -5.386E-11 3.113E-13 0.000E+00
 ETOT  7  -84.512150932568     -5.969E-13 2.430E-15 0.000E+00
 ETOT  8  -84.512150932568     -1.421E-14 2.506E-17 0.000E+00
 ETOT  9  -84.512150932568      4.263E-14 2.498E-19 0.000E+00
 ETOT 10  -84.512150932568     -2.842E-14 9.926E-21 0.000E+00
 
 At SCF step   10   max residual=  9.93E-21 < tolwfr=  1.00E-20 =>converged.
================================================================================
 
 ----iterations are completed or convergence reached----
 
 dfpt_looppert: DFPT cycle converged with prtwf=-1. Will skip output of the 1st-order WFK file.
 dfpt_looppert : ek2=    6.4847249840E+01
          f-sum rule ratio=    1.8358426134E+00
 prteigrs : about to open file /scratch/users/j/a/jabreu/flow_simple2/flow/w242/t1/tmpdata/tmp_1WF1_EIG
 Expectation of eigenvalue derivatives (hartree) for nkpt=   1  k points:
  (in case of degenerate eigenvalues, averaged derivative)
 kpt#   1, nband= 27, wtk=  1.00000, kpt=  0.0000  0.0000  0.0000 (reduced coord)
   0.00000    0.00000    0.00000    0.00000   -0.00000   -0.00000   -0.00000    0.00000
   0.00000   -0.00000   -0.00000   -0.00000   -0.00000   -0.00000   -0.00000   -0.00000
  -0.00000   -0.00000    0.00000    0.00000    0.00000    0.00000   -0.00000   -0.00000
  -0.00067   -0.00000   -0.00000
 
 Eight components of 2nd-order total energy (hartree) are
 1,2,3: 0th-order hamiltonian combined with 1st-order wavefunctions
     kin0=   6.18744676E+01 eigvalue=   7.85101327E+00  local=  -2.69908619E+01
 4,5,6: 1st-order hamiltonian combined with 1st and 0th-order wfs
     kin1=  -1.19049345E+02  Hartree=   0.00000000E+00     xc=   0.00000000E+00
 7,8,9: eventually, occupation + non-local contributions
    edocc=   3.67255658E+01     enl0=   5.05196620E+00   enl1=  -4.99749572E+01
 1-9 gives the relaxation energy (to be shifted if some occ is /=2.0)
   erelax=  -8.45121509E+01
  No Ewald or frozen-wf contrib.: the relaxation energy is the total one
 2DEtotal=   -0.8451215093E+02 Ha. Also 2DEtotal=   -0.229969257986E+04 eV
    (  non-var. 2DEtotal :   -8.4512150933E+01 Ha)
 
--------------------------------------------------------------------------------
 Perturbation wavevector (in red.coord.)   0.000000  0.000000  0.000000
 Perturbation : derivative vs k along direction   2
 The set of symmetries contains only one element for this perturbation.
 symkpt : not enough symmetry to change the number of k points.
 
--------------------------------------------------------------------------------
 
-inwffil : will read wavefunctions from disk file /scratch/users/j/a/jabreu/flow_simple2/flow/w242/t1/indata/in_WFK
--------------------------------------------------------------------------------
 
 Initialisation of the first-order wave-functions :
  ireadwf=   0

--- !BeginCycle
iteration_state: {dtset: 1, }
solver: {iscf: 7, nstep: 100, nline: 4, wfoptalg: 0, }
tolerances: {tolwfr: 1.00E-20, }
...
 
     iter   2DEtotal(Ha)        deltaE(Ha) residm    vres2
-ETOT  1  -84.480115882624     -8.448E+01 4.053E-02 0.000E+00
 ETOT  2  -84.512081817153     -3.197E-02 1.923E-04 0.000E+00
 ETOT  3  -84.512225896838     -1.441E-04 6.920E-07 0.000E+00
 ETOT  4  -84.512226996338     -1.099E-06 7.788E-09 0.000E+00
 ETOT  5  -84.512227005462     -9.124E-09 4.230E-11 0.000E+00
 ETOT  6  -84.512227005540     -7.815E-11 5.024E-13 0.000E+00
 ETOT  7  -84.512227005540     -6.963E-13 2.958E-15 0.000E+00
 ETOT  8  -84.512227005540     -7.105E-14 3.581E-17 0.000E+00
 ETOT  9  -84.512227005540      5.684E-14 2.466E-19 0.000E+00
 ETOT 10  -84.512227005540      0.000E+00 8.448E-21 0.000E+00
 
 At SCF step   10   max residual=  8.45E-21 < tolwfr=  1.00E-20 =>converged.
================================================================================
 
 ----iterations are completed or convergence reached----
 
 dfpt_looppert: DFPT cycle converged with prtwf=-1. Will skip output of the 1st-order WFK file.
 dfpt_looppert : ek2=    6.4847249840E+01
          f-sum rule ratio=    1.8358444237E+00
 prteigrs : about to open file /scratch/users/j/a/jabreu/flow_simple2/flow/w242/t1/tmpdata/tmp_1WF1_EIG
 Expectation of eigenvalue derivatives (hartree) for nkpt=   1  k points:
  (in case of degenerate eigenvalues, averaged derivative)
 kpt#   1, nband= 27, wtk=  1.00000, kpt=  0.0000  0.0000  0.0000 (reduced coord)
   0.00000    0.00000    0.00000    0.00000   -0.00000   -0.00000   -0.00000   -0.00000
  -0.00000    0.00000   -0.00000   -0.00000   -0.00000    0.00000    0.00000    0.00000
   0.00000    0.00000   -0.00000    0.00000    0.00000    0.00000    0.00000    0.00000
  -0.00040   -0.00000   -0.00000
 
 Eight components of 2nd-order total energy (hartree) are
 1,2,3: 0th-order hamiltonian combined with 1st-order wavefunctions
     kin0=   6.20848530E+01 eigvalue=   7.87177514E+00  local=  -2.71067417E+01
 4,5,6: 1st-order hamiltonian combined with 1st and 0th-order wfs
     kin1=  -1.19049462E+02  Hartree=   0.00000000E+00     xc=   0.00000000E+00
 7,8,9: eventually, occupation + non-local contributions
    edocc=   3.66407268E+01     enl0=   5.02161379E+00   enl1=  -4.99749920E+01
 1-9 gives the relaxation energy (to be shifted if some occ is /=2.0)
   erelax=  -8.45122270E+01
  No Ewald or frozen-wf contrib.: the relaxation energy is the total one
 2DEtotal=   -0.8451222701E+02 Ha. Also 2DEtotal=   -0.229969464991E+04 eV
    (  non-var. 2DEtotal :   -8.4512227006E+01 Ha)
 
--------------------------------------------------------------------------------
 Perturbation wavevector (in red.coord.)   0.000000  0.000000  0.000000
 Perturbation : derivative vs k along direction   3
 The set of symmetries contains only one element for this perturbation.
 symkpt : not enough symmetry to change the number of k points.
 
--------------------------------------------------------------------------------
 
-inwffil : will read wavefunctions from disk file /scratch/users/j/a/jabreu/flow_simple2/flow/w242/t1/indata/in_WFK
--------------------------------------------------------------------------------
 
 Initialisation of the first-order wave-functions :
  ireadwf=   0

--- !BeginCycle
iteration_state: {dtset: 1, }
solver: {iscf: 7, nstep: 100, nline: 4, wfoptalg: 0, }
tolerances: {tolwfr: 1.00E-20, }
...
 
     iter   2DEtotal(Ha)        deltaE(Ha) residm    vres2
-ETOT  1  -84.476435393697     -8.448E+01 4.651E-02 0.000E+00
 ETOT  2  -84.512035993450     -3.560E-02 2.409E-04 0.000E+00
 ETOT  3  -84.512208697864     -1.727E-04 6.714E-07 0.000E+00
 ETOT  4  -84.512210049482     -1.352E-06 7.496E-09 0.000E+00
 ETOT  5  -84.512210060897     -1.141E-08 4.401E-11 0.000E+00
 ETOT  6  -84.512210060996     -9.936E-11 4.203E-13 0.000E+00
 ETOT  7  -84.512210060997     -8.811E-13 3.405E-15 0.000E+00
 ETOT  8  -84.512210060997     -2.842E-14 3.285E-17 0.000E+00
 ETOT  9  -84.512210060997     -2.842E-14 2.792E-19 0.000E+00
 ETOT 10  -84.512210060997      2.842E-14 9.594E-21 0.000E+00
 
 At SCF step   10   max residual=  9.59E-21 < tolwfr=  1.00E-20 =>converged.
================================================================================
 
 ----iterations are completed or convergence reached----
 
 dfpt_looppert: DFPT cycle converged with prtwf=-1. Will skip output of the 1st-order WFK file.
 dfpt_looppert : ek2=    6.4847249839E+01
          f-sum rule ratio=    1.8358440119E+00
 prteigrs : about to open file /scratch/users/j/a/jabreu/flow_simple2/flow/w242/t1/tmpdata/tmp_1WF1_EIG
 Expectation of eigenvalue derivatives (hartree) for nkpt=   1  k points:
  (in case of degenerate eigenvalues, averaged derivative)
 kpt#   1, nband= 27, wtk=  1.00000, kpt=  0.0000  0.0000  0.0000 (reduced coord)
  -0.00000   -0.00000   -0.00000   -0.00000    0.00000    0.00000    0.00000    0.00000
   0.00000    0.00000   -0.00000   -0.00000   -0.00000   -0.00000   -0.00000    0.00000
   0.00000    0.00000   -0.00000   -0.00000   -0.00000   -0.00000    0.00000    0.00000
   0.00079    0.00000    0.00000
 
 Eight components of 2nd-order total energy (hartree) are
 1,2,3: 0th-order hamiltonian combined with 1st-order wavefunctions
     kin0=   6.19321125E+01 eigvalue=   7.85707931E+00  local=  -2.70230244E+01
 4,5,6: 1st-order hamiltonian combined with 1st and 0th-order wfs
     kin1=  -1.19049435E+02  Hartree=   0.00000000E+00     xc=   0.00000000E+00
 7,8,9: eventually, occupation + non-local contributions
    edocc=   3.67024027E+01     enl0=   5.04363998E+00   enl1=  -4.99749848E+01
 1-9 gives the relaxation energy (to be shifted if some occ is /=2.0)
   erelax=  -8.45122101E+01
  No Ewald or frozen-wf contrib.: the relaxation energy is the total one
 2DEtotal=   -0.8451221006E+02 Ha. Also 2DEtotal=   -0.229969418883E+04 eV
    (  non-var. 2DEtotal :   -8.4512210061E+01 Ha)
 
 CALCULATION OF EFFECTIVE MASSES
 NOTE : Additional infos (eff. mass eigenvalues, eigenvectors and, if degenerate, average mass) are available in stdout.

 COMMENTS: 
 - At k-point ( 0.000, 0.000, 0.000), bands    16 through    18
   are DEGENERATE (effective mass tensor is therefore not defined).
   See Section IIIB Eqs. (67)-(70) and Appendix E of PRB 93 205147 (2016).
 - Angular average effective mass for Frohlich model is to be averaged over degenerate bands. See later.
 - Associated theta integrals calculated with ntheta=   1000 points.

 K-point ( 0.000, 0.000, 0.000) | band =    16
 Transport equivalent effective mass tensor:
             -0.0753311385             -0.0000000238             -0.0000000844
             -0.0000000238             -0.0753310094              0.0000000476
             -0.0000000844              0.0000000476             -0.0753310502
 Transport equivalent effective mass tensor eigenvalues:
             -0.0753311897             -0.0753310574             -0.0753309509
 Angular average effective mass 1/(<1/m>)=  -0.0734069125
 Angular average effective mass for Frohlich model (<m**0.5>)**2=  -0.0735372429
 Effective masses along directions: (cart. coord. / red. coord. -> eff. mass)
    1:   1.000000  0.000000  0.000000 /   0.948683  0.316228  0.000000 ->  -0.0713172913
    2:   0.000000  1.000000  0.000000 /   0.000000  1.000000  0.000000 ->  -0.0685059363
    3:   0.000000  0.000000  1.000000 /   0.408248  0.408248  0.816497 ->  -0.0716368931
    4:   0.577350  0.577350  0.577350 /   0.585539  0.688047  0.428644 ->  -0.0712644932
    5:   0.000000  0.707107  0.707107 /   0.289489  0.762222  0.578977 ->  -0.0755267836
    6:   0.707107  0.000000  0.707107 /   0.731423  0.422287  0.535439 ->  -0.0714760461
    7:   0.707107  0.707107  0.000000 /   0.616798  0.787122  0.000000 ->  -0.0813257611

 K-point ( 0.000, 0.000, 0.000) | band =    17
 Transport equivalent effective mass tensor:
             -0.8509547603              0.0000009827             -0.0000013060
              0.0000009827             -0.8509473110             -0.0000025602
             -0.0000013060             -0.0000025602             -0.8509403868
 Transport equivalent effective mass tensor eigenvalues:
             -0.8509549562             -0.8509481150             -0.8509393869
 Angular average effective mass 1/(<1/m>)=  -0.5041599069
 Angular average effective mass for Frohlich model (<m**0.5>)**2=  -0.5152461167
 Effective masses along directions: (cart. coord. / red. coord. -> eff. mass)
    1:   1.000000  0.000000  0.000000 /   0.948683  0.316228  0.000000 ->  -0.6063950183
    2:   0.000000  1.000000  0.000000 /   0.000000  1.000000  0.000000 ->  -0.9889734219
    3:   0.000000  0.000000  1.000000 /   0.408248  0.408248  0.816497 ->  -0.4372376951
    4:   0.577350  0.577350  0.577350 /   0.585539  0.688047  0.428644 ->  -0.5574645932
    5:   0.000000  0.707107  0.707107 /   0.289489  0.762222  0.578977 ->  -0.4469988599
    6:   0.707107  0.000000  0.707107 /   0.731423  0.422287  0.535439 ->  -0.4916121848
    7:   0.707107  0.707107  0.000000 /   0.616798  0.787122  0.000000 ->  -0.4479563519

 K-point ( 0.000, 0.000, 0.000) | band =    18
 Transport equivalent effective mass tensor:
             -7.8946960532             -0.0000044724             -0.0000069480
             -0.0000044724             -7.8947418582             -0.0000249362
             -0.0000069480             -0.0000249362             -7.8947620226
 Transport equivalent effective mass tensor eigenvalues:
             -7.8947796540             -7.8947250442             -7.8946952358
 Angular average effective mass 1/(<1/m>)=  -0.9868590081
 Angular average effective mass for Frohlich model (<m**0.5>)**2=  -1.1598959593
 Effective masses along directions: (cart. coord. / red. coord. -> eff. mass)
    1:   1.000000  0.000000  0.000000 /   0.948683  0.316228  0.000000 ->  -1.0542398272
    2:   0.000000  1.000000  0.000000 /   0.000000  1.000000  0.000000 ->  -0.9890138117
    3:   0.000000  0.000000  1.000000 /   0.408248  0.408248  0.816497 ->  -2.6799959909
    4:   0.577350  0.577350  0.577350 /   0.585539  0.688047  0.428644 ->  -1.2603654946
    5:   0.000000  0.707107  0.707107 /   0.289489  0.762222  0.578977 ->  -0.8756208120
    6:   0.707107  0.000000  0.707107 /   0.731423  0.422287  0.535439 ->  -1.6816773469
    7:   0.707107  0.707107  0.000000 /   0.616798  0.787122  0.000000 ->  -0.4782591183

 Angular average effective mass for Frohlich model, averaged over degenerate bands.
 Value of     (<<m**0.5>>)**2 =     4.742474E-01
 Absolute Value of <<m**0.5>> =     6.886562E-01


 K-point ( 0.000, 0.000, 0.000) | band =    19
 Effective mass tensor:
              0.0822107043             -0.0000000000             -0.0000000000
             -0.0000000000              0.0822107043             -0.0000000000
             -0.0000000000             -0.0000000000              0.0822107043
 Effective mass tensor eigenvalues:
              0.0822107043              0.0822107043              0.0822107043
 Angular average effective mass 1/(<1/m>)=   0.0822107043
 Angular average effective mass for Frohlich model (<m**0.5>)**2=   0.0822107043
 Effective masses along directions: (cart. coord. / red. coord. -> eff. mass)
    1:   1.000000  0.000000  0.000000 /   0.948683  0.316228  0.000000 ->   0.0822107043
    2:   0.000000  1.000000  0.000000 /   0.000000  1.000000  0.000000 ->   0.0822107043
    3:   0.000000  0.000000  1.000000 /   0.408248  0.408248  0.816497 ->   0.0822107043
    4:   0.577350  0.577350  0.577350 /   0.585539  0.688047  0.428644 ->   0.0822107043
    5:   0.000000  0.707107  0.707107 /   0.289489  0.762222  0.578977 ->   0.0822107043
    6:   0.707107  0.000000  0.707107 /   0.731423  0.422287  0.535439 ->   0.0822107043
    7:   0.707107  0.707107  0.000000 /   0.616798  0.787122  0.000000 ->   0.0822107043

 END OF EFFECTIVE MASSES SECTION

================================================================================
 
 ---- first-order wavefunction calculations are completed ----
 
 
 Total localisation tensor (bohr^2) in cartesian coordinates
  WARNING : still subject to testing - especially symmetries.
      direction              matrix element
   alpha     beta       real part   imaginary part
     1        1      10.4932640527    0.0000000000
     1        2       2.9679453174    0.0000000000
     1        3       7.2699474275    0.0000000000
     2        1       2.9679453174    0.0000000000
     2        2       8.3946170405    0.0000000000
     2        3       5.1406320838    0.0000000000
     3        1       7.2699474275    0.0000000000
     3        2       5.1406320838    0.0000000000
     3        3      18.8878838386    0.0000000000
 
 respfn : d/dk was computed, but no 2DTE, so no DDB output.
 
== END DATASET(S) ==============================================================
================================================================================
  
 -outvars: echo values of variables after computation  --------
            acell      1.0000000000E+00  1.0000000000E+00  1.0000000000E+00 Bohr
              amu      6.53900000E+01  1.27600000E+02
             ecut      4.20000000E+01 Hartree
           etotal     -8.4512210061E+01
            fcart      0.0000000000E+00  0.0000000000E+00  0.0000000000E+00
                       0.0000000000E+00  0.0000000000E+00  0.0000000000E+00
-          fftalg         512
           irdden           1
           irdwfk           1
           istwfk        1
              ixc     -116133
           kptopt           0
P           mkmem           1
P          mkqmem           1
P          mk1mem           1
            natom           2
            nband          27
           nbdbuf           4
            ngfft          48      48      48
             nkpt           1
            nstep         100
             nsym          24
           ntypat           2
              occ      2.000000  2.000000  2.000000  2.000000  2.000000  2.000000
                       2.000000  2.000000  2.000000  2.000000  2.000000  2.000000
                       2.000000  2.000000  2.000000  2.000000  2.000000  2.000000
                       0.000000  0.000000  0.000000  0.000000  0.000000  0.000000
                       0.000000  0.000000  0.000000
        optdriver           1
            prtwf          -1
            rfdir           1       1       1
           rfelfd           2
            rprim      7.0222550091E+00  0.0000000000E+00  4.0543008198E+00
                       2.3407516697E+00  6.6206455149E+00  4.0543008198E+00
                       0.0000000000E+00  0.0000000000E+00  8.1086016397E+00
          spgroup         216
           strten      0.0000000000E+00  0.0000000000E+00  0.0000000000E+00
                       0.0000000000E+00  0.0000000000E+00  0.0000000000E+00
           symrel      1  0  0   0  1  0   0  0  1       0 -1  1   0 -1  0   1 -1  0
                      -1  0  0  -1  0  1  -1  1  0       0  1 -1   1  0 -1   0  0 -1
                      -1  0  0  -1  1  0  -1  0  1       0 -1  1   1 -1  0   0 -1  0
                       1  0  0   0  0  1   0  1  0       0  1 -1   0  0 -1   1  0 -1
                      -1  0  1  -1  1  0  -1  0  0       0 -1  0   1 -1  0   0 -1  1
                       1  0 -1   0  0 -1   0  1 -1       0  1  0   0  0  1   1  0  0
                       1  0 -1   0  1 -1   0  0 -1       0 -1  0   0 -1  1   1 -1  0
                      -1  0  1  -1  0  0  -1  1  0       0  1  0   1  0  0   0  0  1
                       0  0 -1   0  1 -1   1  0 -1       1 -1  0   0 -1  1   0 -1  0
                       0  0  1   1  0  0   0  1  0      -1  1  0  -1  0  0  -1  0  1
                       0  0  1   0  1  0   1  0  0       1 -1  0   0 -1  0   0 -1  1
                       0  0 -1   1  0 -1   0  1 -1      -1  1  0  -1  0  1  -1  0  0
           tolwfr      1.00000000E-20
            typat      1  2
           useylm           1
           xangst      0.0000000000E+00  0.0000000000E+00  0.0000000000E+00
                       3.7160173037E+00  2.6276210345E+00  6.4363307719E+00
            xcart      0.0000000000E+00  0.0000000000E+00  0.0000000000E+00
                       7.0222550091E+00  4.9654841362E+00  1.2162902459E+01
             xred      0.0000000000E+00  0.0000000000E+00  0.0000000000E+00
                       7.5000000000E-01  7.5000000000E-01  7.5000000000E-01
            znucl       30.00000   52.00000
 
================================================================================


- Timing analysis has been suppressed with timopt=0



================================================================================

 Suggested references for the acknowledgment of ABINIT usage.

 The users of ABINIT have little formal obligations with respect to the ABINIT group
 (those specified in the GNU General Public License, http://www.gnu.org/copyleft/gpl.txt).
 However, it is common practice in the scientific literature,
 to acknowledge the efforts of people that have made the research possible.
 In this spirit, please find below suggested citations of work written by ABINIT developers,
 corresponding to implementations inside of ABINIT that you have used in the present run.
 Note also that it will be of great value to readers of publications presenting these results,
 to read papers enabling them to understand the theoretical formalism and details
 of the ABINIT implementation.
 For information on why they are suggested, see also https://docs.abinit.org/theory/acknowledgments.
-
- [1] Precise effective masses from density functional perturbation theory
- J. Laflamme Janssen, Y. Gillet, S. Ponce, A. Martin, M. Torrent, and X. Gonze. Phys. Rev. B 93, 205147 (2016)
- Comment: in case the DFPT prediction of effective masses is used.
- Strong suggestion to cite this paper in your publications.
- DOI and bibtex: see https://docs.abinit.org/theory/bibliography/#laflamme2016
-
- [2] Libxc: A library of exchange and correlation functionals for density functional theory.
- M.A.L. Marques, M.J.T. Oliveira, T. Burnus, Computer Physics Communications 183, 2227 (2012).
- Comment: to be cited when LibXC is used (negative value of ixc)
- Strong suggestion to cite this paper.
- DOI and bibtex: see https://docs.abinit.org/theory/bibliography/#marques2012
-
- [3] The Abinit project: Impact, environment and recent developments.
- Computer Phys. Comm. 248, 107042 (2020).
- X.Gonze, B. Amadon, G. Antonius, F.Arnardi, L.Baguet, J.-M.Beuken,
- J.Bieder, F.Bottin, J.Bouchet, E.Bousquet, N.Brouwer, F.Bruneval,
- G.Brunin, T.Cavignac, J.-B. Charraud, Wei Chen, M.Cote, S.Cottenier,
- J.Denier, G.Geneste, Ph.Ghosez, M.Giantomassi, Y.Gillet, O.Gingras,
- D.R.Hamann, G.Hautier, Xu He, N.Helbig, N.Holzwarth, Y.Jia, F.Jollet,
- W.Lafargue-Dit-Hauret, K.Lejaeghere, M.A.L.Marques, A.Martin, C.Martins,
- H.P.C. Miranda, F.Naccarato, K. Persson, G.Petretto, V.Planes, Y.Pouillon,
- S.Prokhorenko, F.Ricci, G.-M.Rignanese, A.H.Romero, M.M.Schmitt, M.Torrent,
- M.J.van Setten, B.Van Troeye, M.J.Verstraete, G.Zerah and J.W.Zwanzig
- Comment: the fifth generic paper describing the ABINIT project.
- Note that a version of this paper, that is not formatted for Computer Phys. Comm. 
- is available at https://www.abinit.org/sites/default/files/ABINIT20.pdf .
- The licence allows the authors to put it on the Web.
- DOI and bibtex: see https://docs.abinit.org/theory/bibliography/#gonze2020
-
- [4] First-principles responses of solids to atomic displacements and homogeneous electric fields:,
- implementation of a conjugate-gradient algorithm. X. Gonze, Phys. Rev. B55, 10337 (1997).
- Comment: Non-vanishing rfphon and/or rfelfd, in the norm-conserving case.
- DOI and bibtex: see https://docs.abinit.org/theory/bibliography/#gonze1997
-
- [5] Dynamical matrices, Born effective charges, dielectric permittivity tensors, and ,
- interatomic force constants from density-functional perturbation theory,
- X. Gonze and C. Lee, Phys. Rev. B55, 10355 (1997).
- Comment: Non-vanishing rfphon and/or rfelfd, in the norm-conserving case.
- DOI and bibtex: see https://docs.abinit.org/theory/bibliography/#gonze1997a
-
- [6] Optimized norm-conserving Vanderbilt pseudopotentials.
- D.R. Hamann, Phys. Rev. B 88, 085117 (2013).
- Comment: Some pseudopotential generated using the ONCVPSP code were used.
- DOI and bibtex: see https://docs.abinit.org/theory/bibliography/#hamann2013
-
- [7] ABINIT: Overview, and focus on selected capabilities
- J. Chem. Phys. 152, 124102 (2020).
- A. Romero, D.C. Allan, B. Amadon, G. Antonius, T. Applencourt, L.Baguet,
- J.Bieder, F.Bottin, J.Bouchet, E.Bousquet, F.Bruneval,
- G.Brunin, D.Caliste, M.Cote,
- J.Denier, C. Dreyer, Ph.Ghosez, M.Giantomassi, Y.Gillet, O.Gingras,
- D.R.Hamann, G.Hautier, F.Jollet, G. Jomard,
- A.Martin, 
- H.P.C. Miranda, F.Naccarato, G.Petretto, N.A. Pike, V.Planes,
- S.Prokhorenko, T. Rangel, F.Ricci, G.-M.Rignanese, M.Royo, M.Stengel, M.Torrent,
- M.J.van Setten, B.Van Troeye, M.J.Verstraete, J.Wiktor, J.W.Zwanziger, and X.Gonze.
- Comment: a global overview of ABINIT, with focus on selected capabilities .
- Note that a version of this paper, that is not formatted for J. Chem. Phys 
- is available at https://www.abinit.org/sites/default/files/ABINIT20_JPC.pdf .
- The licence allows the authors to put it on the Web.
- DOI and bibtex: see https://docs.abinit.org/theory/bibliography/#romero2020
-
- [8] Recent developments in the ABINIT software package.
- Computer Phys. Comm. 205, 106 (2016).
- X.Gonze, F.Jollet, F.Abreu Araujo, D.Adams, B.Amadon, T.Applencourt,
- C.Audouze, J.-M.Beuken, J.Bieder, A.Bokhanchuk, E.Bousquet, F.Bruneval
- D.Caliste, M.Cote, F.Dahm, F.Da Pieve, M.Delaveau, M.Di Gennaro,
- B.Dorado, C.Espejo, G.Geneste, L.Genovese, A.Gerossier, M.Giantomassi,
- Y.Gillet, D.R.Hamann, L.He, G.Jomard, J.Laflamme Janssen, S.Le Roux,
- A.Levitt, A.Lherbier, F.Liu, I.Lukacevic, A.Martin, C.Martins,
- M.J.T.Oliveira, S.Ponce, Y.Pouillon, T.Rangel, G.-M.Rignanese,
- A.H.Romero, B.Rousseau, O.Rubel, A.A.Shukri, M.Stankovski, M.Torrent,
- M.J.Van Setten, B.Van Troeye, M.J.Verstraete, D.Waroquier, J.Wiktor,
- B.Xu, A.Zhou, J.W.Zwanziger.
- Comment: the fourth generic paper describing the ABINIT project.
- Note that a version of this paper, that is not formatted for Computer Phys. Comm. 
- is available at https://www.abinit.org/sites/default/files/ABINIT16.pdf .
- The licence allows the authors to put it on the Web.
- DOI and bibtex: see https://docs.abinit.org/theory/bibliography/#gonze2016
-
- Proc.   0 individual time (sec): cpu=         17.7  wall=         21.7
 
================================================================================
 
 Calculation completed.
.Delivered   6 WARNINGs and   5 COMMENTs to log file.
+Overall time at end (sec) : cpu=         17.7  wall=         21.7
