
.Version 9.5.2 of ABINIT 
.(MPI version, prepared for a x86_64_linux_intel19.1 computer) 

.Copyright (C) 1998-2021 ABINIT group . 
 ABINIT comes with ABSOLUTELY NO WARRANTY.
 It is free software, and you are welcome to redistribute it
 under certain conditions (GNU General Public License,
 see ~abinit/COPYING or http://www.gnu.org/copyleft/gpl.txt).

 ABINIT is a project of the Universite Catholique de Louvain,
 Corning Inc. and other collaborators, see ~abinit/doc/developers/contributors.txt .
 Please read https://docs.abinit.org/theory/acknowledgments for suggested
 acknowledgments of the ABINIT effort.
 For more information, see https://www.abinit.org .

.Starting date : Mon 31 May 2021.
- ( at 22h03 )
  
- input  file    -> /scratch/users/j/a/jabreu/flow_simple_11atoms/flow/w337/t1/run.abi
- output file    -> /scratch/users/j/a/jabreu/flow_simple_11atoms/flow/w337/t1/run.abo
- root for input  files -> /scratch/users/j/a/jabreu/flow_simple_11atoms/flow/w337/t1/indata/in
- root for output files -> /scratch/users/j/a/jabreu/flow_simple_11atoms/flow/w337/t1/outdata/out
 
 
 Symmetries : space group Pn m a (# 62); Bravais oP (primitive ortho.)
================================================================================
 Values of the parameters that define the memory need of the present run (RF).
     intxc =       0      iscf =       7    lmnmax =      18     lnmax =       6
     mgfft =     108  mpssoang =       3    mqgrid =    5334     natom =      12
  nloc_mem =       1    nspden =       1   nspinor =       1    nsppol =       1
      nsym =       8    n1xccc =    2501    ntypat =       2    occopt =       1
   xclevel =       2
-    mband =          57        mffmem =           1         mkmem =           1
-   mkqmem =           1        mk1mem =           1           mpw =       32535
      nfft =      524880          nkpt =           1
================================================================================
P This job should need less than                     597.110 Mbytes of memory.
  Rough estimation (10% accuracy) of disk space for files :
_ WF disk file :     28.299 Mbytes ; DEN or POT disk file :      4.007 Mbytes.
================================================================================
 
--------------------------------------------------------------------------------
------------- Echo of variables that govern the present computation ------------
--------------------------------------------------------------------------------
-
- outvars: echo of selected default values                                      
-   iomode0 =  0 , fftalg0 =512 , wfoptalg0 =  0
-
- outvars: echo of global parameters not present in the input file              
-  max_nthreads =    0
-
 -outvars: echo values of preprocessed input variables --------
            acell      1.0000000000E+00  1.0000000000E+00  1.0000000000E+00 Bohr
              amu      1.37327000E+02  1.26904470E+02
             ecut      3.50000000E+01 Hartree
-          fftalg         512
           irdden           1
           irdwfk           1
           istwfk        1
              ixc     -116133
           kptopt           0
P           mkmem           1
P          mkqmem           1
P          mk1mem           1
            natom          12
            nband          57
           nbdbuf           4
            ngfft          54      90     108
             nkpt           1
            nstep        2000
             nsym           8
           ntypat           2
              occ      2.000000  2.000000  2.000000  2.000000  2.000000  2.000000
                       2.000000  2.000000  2.000000  2.000000  2.000000  2.000000
                       2.000000  2.000000  2.000000  2.000000  2.000000  2.000000
                       2.000000  2.000000  2.000000  2.000000  2.000000  2.000000
                       2.000000  2.000000  2.000000  2.000000  2.000000  2.000000
                       2.000000  2.000000  2.000000  2.000000  2.000000  2.000000
                       2.000000  2.000000  2.000000  2.000000  2.000000  2.000000
                       2.000000  2.000000  2.000000  2.000000  2.000000  2.000000
                       0.000000  0.000000  0.000000  0.000000  0.000000  0.000000
                       0.000000  0.000000  0.000000
        optdriver           1
            prtwf          -1
            rfdir           1       1       1
           rfelfd           2
            rprim      9.9021951287E+00  0.0000000000E+00  0.0000000000E+00
                       0.0000000000E+00  1.6590135420E+01  0.0000000000E+00
                       0.0000000000E+00  0.0000000000E+00  2.0025699107E+01
          spgroup          62
           symrel      1  0  0   0  1  0   0  0  1      -1  0  0   0 -1  0   0  0 -1
                      -1  0  0   0  1  0   0  0 -1       1  0  0   0 -1  0   0  0  1
                      -1  0  0   0 -1  0   0  0  1       1  0  0   0  1  0   0  0 -1
                       1  0  0   0 -1  0   0  0 -1      -1  0  0   0  1  0   0  0  1
            tnons      0.0000000  0.0000000  0.0000000     0.0000000  0.0000000  0.0000000
                       0.5000000  0.5000000  0.5000000     0.5000000  0.5000000  0.5000000
                       0.0000000  0.5000000  0.5000000     0.0000000  0.5000000  0.5000000
                       0.5000000  0.0000000  0.0000000     0.5000000  0.0000000  0.0000000
           tolwfr      1.00000000E-20
            typat      1  1  1  1  2  2  2  2  2  2  2  2
           useylm           1
           xangst      1.3100039943E+00  6.5658874502E+00  4.0311534078E+00
                       3.9300119828E+00  2.2132341014E+00  6.5659901459E+00
                       1.3100039943E+00  2.1763266744E+00  1.2674183690E+00
                       3.9300119828E+00  6.6027948772E+00  9.3297251846E+00
                       1.3100039943E+00  4.6227869190E+00  7.0750981165E+00
                       3.9300119828E+00  4.1563346327E+00  3.5220454372E+00
                       1.3100039943E+00  2.3322614314E-01  8.8206172140E+00
                       3.9300119828E+00  8.5458954085E+00  1.7765263396E+00
                       3.9300119828E+00  7.5216440762E+00  6.0400857027E+00
                       1.3100039943E+00  1.2574774754E+00  4.5570578510E+00
                       3.9300119828E+00  3.1320833004E+00  9.8556296278E+00
                       1.3100039943E+00  5.6470382513E+00  7.4151392588E-01
            xcart      2.4755487822E+00  1.2407729100E+01  7.6177759404E+00
                       7.4266463465E+00  4.1824063196E+00  1.2407923167E+01
                       2.4755487822E+00  4.1126613903E+00  2.3950736132E+00
                       7.4266463465E+00  1.2477474030E+01  1.7630625494E+01
                       2.4755487822E+00  8.7358012475E+00  1.3369997803E+01
                       7.4266463465E+00  7.8543341724E+00  6.6557013039E+00
                       2.4755487822E+00  4.4073353757E-01  1.6668550858E+01
                       7.4266463465E+00  1.6149401882E+01  3.3571482497E+00
                       7.4266463465E+00  1.4213847373E+01  1.1414107797E+01
                       2.4755487822E+00  2.3762880469E+00  8.6115913100E+00
                       7.4266463465E+00  5.9187796631E+00  1.8624440864E+01
                       2.4755487822E+00  1.0671355757E+01  1.4012582436E+00
             xred      2.5000000000E-01  7.4789800000E-01  3.8040000000E-01
                       7.5000000000E-01  2.5210200000E-01  6.1960000000E-01
                       2.5000000000E-01  2.4789800000E-01  1.1960000000E-01
                       7.5000000000E-01  7.5210200000E-01  8.8040000000E-01
                       2.5000000000E-01  5.2656600000E-01  6.6764200000E-01
                       7.5000000000E-01  4.7343400000E-01  3.3235800000E-01
                       2.5000000000E-01  2.6566000000E-02  8.3235800000E-01
                       7.5000000000E-01  9.7343400000E-01  1.6764200000E-01
                       7.5000000000E-01  8.5676500000E-01  5.6997300000E-01
                       2.5000000000E-01  1.4323500000E-01  4.3002700000E-01
                       7.5000000000E-01  3.5676500000E-01  9.3002700000E-01
                       2.5000000000E-01  6.4323500000E-01  6.9973000000E-02
            znucl       56.00000   53.00000
 
================================================================================
 
 chkinp: Checking input parameters for consistency.
 
================================================================================
== DATASET  1 ==================================================================
-   mpi_nproc: 1, omp_nthreads: -1 (-1 if OMP is not activated)
 

--- !DatasetInfo
iteration_state: {dtset: 1, }
dimensions: {natom: 12, nkpt: 1, mband: 57, nsppol: 1, nspinor: 1, nspden: 1, mpw: 32535, }
cutoff_energies: {ecut:  35.0, pawecutdg:  -1.0, }
electrons: {nelect:   9.60000000E+01, charge:   0.00000000E+00, occopt:   1.00000000E+00, tsmear:   1.00000000E-02, }
meta: {optdriver: 1, rfelfd: 2, }
...

 Real(R)+Recip(G) space primitive vectors, cartesian coordinates (Bohr,Bohr^-1):
 R(1)=  9.9021951  0.0000000  0.0000000  G(1)=  0.1009877  0.0000000  0.0000000
 R(2)=  0.0000000 16.5901354  0.0000000  G(2)=  0.0000000  0.0602768  0.0000000
 R(3)=  0.0000000  0.0000000 20.0256991  G(3)=  0.0000000  0.0000000  0.0499358
 Unit cell volume ucvol=  3.2897970E+03 bohr^3
 Angles (23,13,12)=  9.00000000E+01  9.00000000E+01  9.00000000E+01 degrees
 
 getcut: wavevector=  0.0000  0.0000  0.0000  ngfft=  54  90 108
         ecut(hartree)=     35.000   => boxcut(ratio)=   2.02506
 
--- Pseudopotential description ------------------------------------------------
- pspini: atom type   1  psp file is /scratch/users/j/a/jabreu/pseudos/PBEsol/Ba.psp8
- pspatm: opening atomic psp file    /scratch/users/j/a/jabreu/pseudos/PBEsol/Ba.psp8
- Ba    ONCVPSP-3.3.0  r_core=   2.15444   1.91218   2.15444
- 56.00000  10.00000    180112                znucl, zion, pspdat
    8 -116133    2    4       600   0.00000   pspcod,pspxc,lmax,lloc,mmax,r2well
    5.99000000000000    5.00000000000000    0.00000000000000   rchrg,fchrg,qchrg
     nproj     2     2     2
     extension_switch     1
  pspatm : epsatm=   26.37418029
         --- l  ekb(1:nproj) -->
             0    6.652372    0.677024
             1    5.027722    0.408462
             2    2.543237    0.416854
 pspatm: atomic psp has been read  and splines computed
 
- pspini: atom type   2  psp file is /scratch/users/j/a/jabreu/pseudos/PBEsol/I.psp8
- pspatm: opening atomic psp file    /scratch/users/j/a/jabreu/pseudos/PBEsol/I.psp8
- I     ONCVPSP-3.3.0  r_core=   2.02042   2.17032   2.27639
- 53.00000   7.00000    180112                znucl, zion, pspdat
    8 -116133    2    4       600   0.00000   pspcod,pspxc,lmax,lloc,mmax,r2well
    5.99000000000000    4.00000000000000    0.00000000000000   rchrg,fchrg,qchrg
     nproj     2     2     2
     extension_switch     1
  pspatm : epsatm=   18.14229533
         --- l  ekb(1:nproj) -->
             0    6.015861    0.935228
             1    4.063749    0.754139
             2    4.149534    0.722940
 pspatm: atomic psp has been read  and splines computed
 
   2.40609680E+04                                ecore*ucvol(ha*bohr**3)
--------------------------------------------------------------------------------
 
 
 ==>  initialize data related to q vector <== 
 
 The list of irreducible perturbations for this q vector is:
    1)    idir= 1    ipert=  13
    2)    idir= 2    ipert=  13
    3)    idir= 3    ipert=  13
 
================================================================================
 
--------------------------------------------------------------------------------
 Perturbation wavevector (in red.coord.)   0.000000  0.000000  0.000000
 Perturbation : derivative vs k along direction   1
 
 dfpt_looppert : COMMENT -
  In a d/dk calculation, iscf is set to -3 automatically.
 The set of symmetries contains only one element for this perturbation.
 symkpt : not enough symmetry to change the number of k points.
 
--------------------------------------------------------------------------------
 
--------------------------------------------------------------------------------
 
 Initialisation of the first-order wave-functions :
  ireadwf=   0

--- !BeginCycle
iteration_state: {dtset: 1, }
solver: {iscf: 7, nstep: 2000, nline: 4, wfoptalg: 0, }
tolerances: {tolwfr: 1.00E-20, }
...
 
     iter   2DEtotal(Ha)        deltaE(Ha) residm    vres2
-ETOT  1  -47.023183494762     -4.702E+01 2.418E-02 0.000E+00
 ETOT  2  -47.049464036525     -2.628E-02 2.007E-03 0.000E+00
 ETOT  3  -47.049508648632     -4.461E-05 3.205E-04 0.000E+00
 ETOT  4  -47.049508815615     -1.670E-07 4.789E-05 0.000E+00
 ETOT  5  -47.049508816395     -7.800E-10 1.031E-05 0.000E+00
 ETOT  6  -47.049508816399     -4.086E-12 1.683E-06 0.000E+00
 ETOT  7  -47.049508816399     -7.105E-15 3.696E-07 0.000E+00
 ETOT  8  -47.049508816399     -2.842E-14 6.127E-08 0.000E+00
 ETOT  9  -47.049508816399      2.132E-14 1.343E-08 0.000E+00
 ETOT 10  -47.049508816399     -1.421E-14 2.248E-09 0.000E+00
 ETOT 11  -47.049508816399      7.105E-15 4.908E-10 0.000E+00
 ETOT 12  -47.049508816399     -2.132E-14 8.266E-11 0.000E+00
 ETOT 13  -47.049508816399      7.105E-15 1.798E-11 0.000E+00
 ETOT 14  -47.049508816399      7.105E-15 3.043E-12 0.000E+00
 ETOT 15  -47.049508816399      0.000E+00 6.596E-13 0.000E+00
 ETOT 16  -47.049508816399     -1.421E-14 1.121E-13 0.000E+00
 ETOT 17  -47.049508816399      0.000E+00 2.423E-14 0.000E+00
 ETOT 18  -47.049508816399      7.105E-15 4.132E-15 0.000E+00
 ETOT 19  -47.049508816399      1.421E-14 8.905E-16 0.000E+00
 ETOT 20  -47.049508816399     -1.421E-14 1.523E-16 0.000E+00
 ETOT 21  -47.049508816399      0.000E+00 3.275E-17 0.000E+00
 ETOT 22  -47.049508816399      7.105E-15 5.617E-18 0.000E+00
 ETOT 23  -47.049508816399     -1.421E-14 1.205E-18 0.000E+00
 ETOT 24  -47.049508816399      7.105E-15 2.072E-19 0.000E+00
 ETOT 25  -47.049508816399     -7.105E-15 4.436E-20 0.000E+00
 ETOT 26  -47.049508816399      0.000E+00 9.497E-21 0.000E+00
 
 At SCF step   26   max residual=  9.50E-21 < tolwfr=  1.00E-20 =>converged.
================================================================================
 
 ----iterations are completed or convergence reached----
 
 dfpt_looppert: DFPT cycle converged with prtwf=-1. Will skip output of the 1st-order WFK file.
 dfpt_looppert : ek2=    7.7303294889E+01
          f-sum rule ratio=    1.0698254555E+00
 prteigrs : about to open file /scratch/users/j/a/jabreu/flow_simple_11atoms/flow/w337/t1/tmpdata/tmp_1WF1_EIG
 Expectation of eigenvalue derivatives (hartree) for nkpt=   1  k points:
  (in case of degenerate eigenvalues, averaged derivative)
 kpt#   1, nband= 57, wtk=  1.00000, kpt=  0.0000  0.0000  0.0000 (reduced coord)
  -0.00000    0.00000   -0.00000   -0.00000   -0.00000   -0.00000   -0.00000    0.00000
  -0.00000   -0.00000   -0.00000    0.00000   -0.00000    0.00000    0.00000    0.00000
  -0.00000   -0.00000   -0.00000    0.00000   -0.00000   -0.00000    0.00000    0.00000
  -0.00000    0.00000   -0.00000    0.00000   -0.00000    0.00000   -0.00000   -0.00000
   0.00000    0.00000    0.00000   -0.00000    0.00000   -0.00000   -0.00000   -0.00000
   0.00000   -0.00000    0.00000    0.00000   -0.00000    0.00000    0.00000   -0.00000
   0.00000    0.00000    0.00000    0.00000   -0.00000    0.00000   -0.00000   -0.00000
   0.00000
 
 Eight components of 2nd-order total energy (hartree) are
 1,2,3: 0th-order hamiltonian combined with 1st-order wavefunctions
     kin0=   5.86659912E+01 eigvalue=   3.66994379E-01  local=  -3.96514622E+01
 4,5,6: 1st-order hamiltonian combined with 1st and 0th-order wfs
     kin1=  -8.27010327E+01  Hartree=   0.00000000E+00     xc=   0.00000000E+00
 7,8,9: eventually, occupation + non-local contributions
    edocc=   1.33821575E+01     enl0=   1.42858280E+01   enl1=  -1.13979850E+01
 1-9 gives the relaxation energy (to be shifted if some occ is /=2.0)
   erelax=  -4.70495088E+01
  No Ewald or frozen-wf contrib.: the relaxation energy is the total one
 2DEtotal=   -0.4704950882E+02 Ha. Also 2DEtotal=   -0.128028224483E+04 eV
    (  non-var. 2DEtotal :   -4.7049508816E+01 Ha)
 
--------------------------------------------------------------------------------
 Perturbation wavevector (in red.coord.)   0.000000  0.000000  0.000000
 Perturbation : derivative vs k along direction   2
 The set of symmetries contains only one element for this perturbation.
 symkpt : not enough symmetry to change the number of k points.
 
--------------------------------------------------------------------------------
 
--------------------------------------------------------------------------------
 
 Initialisation of the first-order wave-functions :
  ireadwf=   0

--- !BeginCycle
iteration_state: {dtset: 1, }
solver: {iscf: 7, nstep: 2000, nline: 4, wfoptalg: 0, }
tolerances: {tolwfr: 1.00E-20, }
...
 
     iter   2DEtotal(Ha)        deltaE(Ha) residm    vres2
-ETOT  1  -16.089185515808     -1.609E+01 1.829E-02 0.000E+00
 ETOT  2  -16.099467114269     -1.028E-02 1.810E-03 0.000E+00
 ETOT  3  -16.099493077988     -2.596E-05 1.629E-04 0.000E+00
 ETOT  4  -16.099493187947     -1.100E-07 2.921E-05 0.000E+00
 ETOT  5  -16.099493188516     -5.691E-10 3.017E-06 0.000E+00
 ETOT  6  -16.099493188520     -3.279E-12 5.615E-07 0.000E+00
 ETOT  7  -16.099493188520      2.132E-14 5.887E-08 0.000E+00
 ETOT  8  -16.099493188520     -3.908E-14 1.099E-08 0.000E+00
 ETOT  9  -16.099493188520     -1.066E-14 1.158E-09 0.000E+00
 ETOT 10  -16.099493188520      7.105E-15 2.167E-10 0.000E+00
 ETOT 11  -16.099493188520      3.553E-15 2.296E-11 0.000E+00
 ETOT 12  -16.099493188520      0.000E+00 4.288E-12 0.000E+00
 ETOT 13  -16.099493188520      3.553E-15 4.562E-13 0.000E+00
 ETOT 14  -16.099493188520      0.000E+00 8.505E-14 0.000E+00
 ETOT 15  -16.099493188520     -3.553E-15 9.093E-15 0.000E+00
 ETOT 16  -16.099493188520      3.553E-15 1.690E-15 0.000E+00
 ETOT 17  -16.099493188520     -3.553E-15 1.815E-16 0.000E+00
 ETOT 18  -16.099493188520     -3.553E-15 3.363E-17 0.000E+00
 ETOT 19  -16.099493188520      0.000E+00 3.628E-18 0.000E+00
 ETOT 20  -16.099493188520      3.553E-15 6.701E-19 0.000E+00
 ETOT 21  -16.099493188520      0.000E+00 7.261E-20 0.000E+00
 ETOT 22  -16.099493188520      0.000E+00 1.337E-20 0.000E+00
 ETOT 23  -16.099493188520     -7.105E-15 9.967E-21 0.000E+00
 
 At SCF step   23   max residual=  9.97E-21 < tolwfr=  1.00E-20 =>converged.
================================================================================
 
 ----iterations are completed or convergence reached----
 
 dfpt_looppert: DFPT cycle converged with prtwf=-1. Will skip output of the 1st-order WFK file.
 dfpt_looppert : ek2=    2.7539820377E+01
          f-sum rule ratio=    1.0209621830E+00
 prteigrs : about to open file /scratch/users/j/a/jabreu/flow_simple_11atoms/flow/w337/t1/tmpdata/tmp_1WF1_EIG
 Expectation of eigenvalue derivatives (hartree) for nkpt=   1  k points:
  (in case of degenerate eigenvalues, averaged derivative)
 kpt#   1, nband= 57, wtk=  1.00000, kpt=  0.0000  0.0000  0.0000 (reduced coord)
  -0.00000    0.00000   -0.00000   -0.00000   -0.00000   -0.00000    0.00000    0.00000
  -0.00000    0.00000    0.00000    0.00000    0.00000   -0.00000   -0.00000   -0.00000
  -0.00000    0.00000    0.00000    0.00000    0.00000    0.00000   -0.00000   -0.00000
  -0.00000   -0.00000   -0.00000    0.00000   -0.00000    0.00000   -0.00000   -0.00000
  -0.00000   -0.00000   -0.00000    0.00000   -0.00000   -0.00000   -0.00000   -0.00000
  -0.00000    0.00000   -0.00000   -0.00000   -0.00000   -0.00000    0.00000   -0.00000
   0.00000    0.00000   -0.00000   -0.00000    0.00000   -0.00000    0.00000    0.00000
  -0.00000
 
 Eight components of 2nd-order total energy (hartree) are
 1,2,3: 0th-order hamiltonian combined with 1st-order wavefunctions
     kin0=   2.08613199E+01 eigvalue=   4.37443356E-02  local=  -1.39630741E+01
 4,5,6: 1st-order hamiltonian combined with 1st and 0th-order wfs
     kin1=  -2.81171151E+01  Hartree=   0.00000000E+00     xc=   0.00000000E+00
 7,8,9: eventually, occupation + non-local contributions
    edocc=   4.01284242E+00     enl0=   5.14466057E+00   enl1=  -4.08187125E+00
 1-9 gives the relaxation energy (to be shifted if some occ is /=2.0)
   erelax=  -1.60994932E+01
  No Ewald or frozen-wf contrib.: the relaxation energy is the total one
 2DEtotal=   -0.1609949319E+02 Ha. Also 2DEtotal=   -0.438089489104E+03 eV
    (  non-var. 2DEtotal :   -1.6099493188E+01 Ha)
 
--------------------------------------------------------------------------------
 Perturbation wavevector (in red.coord.)   0.000000  0.000000  0.000000
 Perturbation : derivative vs k along direction   3
 The set of symmetries contains only one element for this perturbation.
 symkpt : not enough symmetry to change the number of k points.
 
--------------------------------------------------------------------------------
 
--------------------------------------------------------------------------------
 
 Initialisation of the first-order wave-functions :
  ireadwf=   0

--- !BeginCycle
iteration_state: {dtset: 1, }
solver: {iscf: 7, nstep: 2000, nline: 4, wfoptalg: 0, }
tolerances: {tolwfr: 1.00E-20, }
...
 
     iter   2DEtotal(Ha)        deltaE(Ha) residm    vres2
-ETOT  1  -11.091596373469     -1.109E+01 7.689E-03 0.000E+00
 ETOT  2  -11.101756396957     -1.016E-02 9.052E-04 0.000E+00
 ETOT  3  -11.101786212336     -2.982E-05 8.665E-05 0.000E+00
 ETOT  4  -11.101786342074     -1.297E-07 8.127E-06 0.000E+00
 ETOT  5  -11.101786342714     -6.397E-10 9.676E-07 0.000E+00
 ETOT  6  -11.101786342717     -3.423E-12 8.248E-08 0.000E+00
 ETOT  7  -11.101786342717     -1.776E-14 1.318E-08 0.000E+00
 ETOT  8  -11.101786342717     -3.553E-15 1.136E-09 0.000E+00
 ETOT  9  -11.101786342717      1.421E-14 1.855E-10 0.000E+00
 ETOT 10  -11.101786342717     -7.105E-15 1.605E-11 0.000E+00
 ETOT 11  -11.101786342717      3.553E-15 2.637E-12 0.000E+00
 ETOT 12  -11.101786342717      0.000E+00 2.433E-13 0.000E+00
 ETOT 13  -11.101786342717      1.776E-15 3.768E-14 0.000E+00
 ETOT 14  -11.101786342717     -1.776E-15 3.813E-15 0.000E+00
 ETOT 15  -11.101786342717      1.776E-15 5.403E-16 0.000E+00
 ETOT 16  -11.101786342717     -8.882E-15 5.989E-17 0.000E+00
 ETOT 17  -11.101786342717      3.553E-15 8.333E-18 0.000E+00
 ETOT 18  -11.101786342717      0.000E+00 9.426E-19 0.000E+00
 ETOT 19  -11.101786342717      0.000E+00 1.320E-19 0.000E+00
 ETOT 20  -11.101786342717      7.105E-15 1.486E-20 0.000E+00
 ETOT 21  -11.101786342717     -3.553E-15 9.644E-21 0.000E+00
 
 At SCF step   21   max residual=  9.64E-21 < tolwfr=  1.00E-20 =>converged.
================================================================================
 
 ----iterations are completed or convergence reached----
 
 dfpt_looppert: DFPT cycle converged with prtwf=-1. Will skip output of the 1st-order WFK file.
 dfpt_looppert : ek2=    1.8901035269E+01
          f-sum rule ratio=    1.0262633849E+00
 prteigrs : about to open file /scratch/users/j/a/jabreu/flow_simple_11atoms/flow/w337/t1/tmpdata/tmp_1WF1_EIG
 Expectation of eigenvalue derivatives (hartree) for nkpt=   1  k points:
  (in case of degenerate eigenvalues, averaged derivative)
 kpt#   1, nband= 57, wtk=  1.00000, kpt=  0.0000  0.0000  0.0000 (reduced coord)
   0.00000    0.00000    0.00000   -0.00000   -0.00000   -0.00000   -0.00000   -0.00000
  -0.00000   -0.00000    0.00000    0.00000   -0.00000    0.00000    0.00000   -0.00000
  -0.00000   -0.00000   -0.00000    0.00000    0.00000    0.00000    0.00000    0.00000
   0.00000   -0.00000    0.00000   -0.00000   -0.00000   -0.00000   -0.00000   -0.00000
   0.00000    0.00000    0.00000    0.00000    0.00000    0.00000   -0.00000   -0.00000
  -0.00000    0.00000   -0.00000    0.00000   -0.00000   -0.00000   -0.00000   -0.00000
   0.00000   -0.00000    0.00000   -0.00000    0.00000    0.00000    0.00000   -0.00000
   0.00000
 
 Eight components of 2nd-order total energy (hartree) are
 1,2,3: 0th-order hamiltonian combined with 1st-order wavefunctions
     kin0=   1.52846136E+01 eigvalue=   2.59755255E-03  local=  -1.03843239E+01
 4,5,6: 1st-order hamiltonian combined with 1st and 0th-order wfs
     kin1=  -1.93974404E+01  Hartree=   0.00000000E+00     xc=   0.00000000E+00
 7,8,9: eventually, occupation + non-local contributions
    edocc=   2.44499125E+00     enl0=   3.75390787E+00   enl1=  -2.80613225E+00
 1-9 gives the relaxation energy (to be shifted if some occ is /=2.0)
   erelax=  -1.11017863E+01
  No Ewald or frozen-wf contrib.: the relaxation energy is the total one
 2DEtotal=   -0.1110178634E+02 Ha. Also 2DEtotal=   -0.302094969703E+03 eV
    (  non-var. 2DEtotal :   -1.1101786343E+01 Ha)
 
 CALCULATION OF EFFECTIVE MASSES
 NOTE : Additional infos (eff. mass eigenvalues, eigenvectors and, if degenerate, average mass) are available in stdout.

 K-point ( 0.000, 0.000, 0.000) | band =    48
 Effective mass tensor:
             -0.8493000905             -0.0000000001              0.0000000001
             -0.0000000001             -0.3482719739             -0.0000001014
              0.0000000001             -0.0000001014             -4.7336818445
 Effective mass tensor eigenvalues:
             -4.7336818445             -0.8493000905             -0.3482719739
 Angular average effective mass 1/(<1/m>)=  -0.7042234749
 Angular average effective mass for Frohlich model (<m**0.5>)**2=  -0.8973660188
 Effective masses along directions: (cart. coord. / red. coord. -> eff. mass)
    1:   1.000000  0.000000  0.000000 /   1.000000  0.000000  0.000000 ->  -0.8493000905
    2:   0.000000  1.000000  0.000000 /   0.000000  1.000000  0.000000 ->  -0.3482719739
    3:   0.000000  0.000000  1.000000 /   0.000000  0.000000  1.000000 ->  -4.7336818445
    4:   0.577350  0.577350  0.577350 /   0.355855  0.596199  0.719663 ->  -0.7042234954
    5:   0.000000  0.707107  0.707107 /   0.000000  0.637959  0.770070 ->  -0.6488090385
    6:   0.707107  0.000000  0.707107 /   0.443247  0.000000  0.896400 ->  -1.4402039861
    7:   0.707107  0.707107  0.000000 /   0.512520  0.858675  0.000000 ->  -0.4939784883

 K-point ( 0.000, 0.000, 0.000) | band =    49
 Effective mass tensor:
              0.6879136189              0.0000000048             -0.0000000000
              0.0000000048              0.5047479163             -0.0000000332
             -0.0000000000             -0.0000000332              0.4984960872
 Effective mass tensor eigenvalues:
              0.4984960872              0.5047479163              0.6879136189
 Angular average effective mass 1/(<1/m>)=   0.5513802119
 Angular average effective mass for Frohlich model (<m**0.5>)**2=   0.5548475684
 Effective masses along directions: (cart. coord. / red. coord. -> eff. mass)
    1:   1.000000  0.000000  0.000000 /   1.000000  0.000000  0.000000 ->   0.6879136189
    2:   0.000000  1.000000  0.000000 /   0.000000  1.000000  0.000000 ->   0.5047479163
    3:   0.000000  0.000000  1.000000 /   0.000000  0.000000  1.000000 ->   0.4984960872
    4:   0.577350  0.577350  0.577350 /   0.355855  0.596199  0.719663 ->   0.5513801880
    5:   0.000000  0.707107  0.707107 /   0.000000  0.637959  0.770070 ->   0.5016024890
    6:   0.707107  0.000000  0.707107 /   0.443247  0.000000  0.896400 ->   0.5780840220
    7:   0.707107  0.707107  0.000000 /   0.512520  0.858675  0.000000 ->   0.5822657280

 END OF EFFECTIVE MASSES SECTION

================================================================================
 
 ---- first-order wavefunction calculations are completed ----
 
 
 Total localisation tensor (bohr^2) in cartesian coordinates
  WARNING : still subject to testing - especially symmetries.
      direction              matrix element
   alpha     beta       real part   imaginary part
     1        1       1.8182840099    0.0000000000
     1        2       0.0000000000    0.0000000000
     1        3       0.0000000000    0.0000000000
     2        1       0.0000000000    0.0000000000
     2        2       1.6452728772    0.0000000000
     2        3       0.0000000000    0.0000000000
     3        1       0.0000000000    0.0000000000
     3        2       0.0000000000    0.0000000000
     3        3       1.6756450441    0.0000000000
 
 respfn : d/dk was computed, but no 2DTE, so no DDB output.
 
== END DATASET(S) ==============================================================
================================================================================
  
 -outvars: echo values of variables after computation  --------
            acell      1.0000000000E+00  1.0000000000E+00  1.0000000000E+00 Bohr
              amu      1.37327000E+02  1.26904470E+02
             ecut      3.50000000E+01 Hartree
           etotal     -1.1101786343E+01
            fcart      0.0000000000E+00  0.0000000000E+00  0.0000000000E+00
                       0.0000000000E+00  0.0000000000E+00  0.0000000000E+00
                       0.0000000000E+00  0.0000000000E+00  0.0000000000E+00
                       0.0000000000E+00  0.0000000000E+00  0.0000000000E+00
                       0.0000000000E+00  0.0000000000E+00  0.0000000000E+00
                       0.0000000000E+00  0.0000000000E+00  0.0000000000E+00
                       0.0000000000E+00  0.0000000000E+00  0.0000000000E+00
                       0.0000000000E+00  0.0000000000E+00  0.0000000000E+00
                       0.0000000000E+00  0.0000000000E+00  0.0000000000E+00
                       0.0000000000E+00  0.0000000000E+00  0.0000000000E+00
                       0.0000000000E+00  0.0000000000E+00  0.0000000000E+00
                       0.0000000000E+00  0.0000000000E+00  0.0000000000E+00
-          fftalg         512
           irdden           1
           irdwfk           1
           istwfk        1
              ixc     -116133
           kptopt           0
P           mkmem           1
P          mkqmem           1
P          mk1mem           1
            natom          12
            nband          57
           nbdbuf           4
            ngfft          54      90     108
             nkpt           1
            nstep        2000
             nsym           8
           ntypat           2
              occ      2.000000  2.000000  2.000000  2.000000  2.000000  2.000000
                       2.000000  2.000000  2.000000  2.000000  2.000000  2.000000
                       2.000000  2.000000  2.000000  2.000000  2.000000  2.000000
                       2.000000  2.000000  2.000000  2.000000  2.000000  2.000000
                       2.000000  2.000000  2.000000  2.000000  2.000000  2.000000
                       2.000000  2.000000  2.000000  2.000000  2.000000  2.000000
                       2.000000  2.000000  2.000000  2.000000  2.000000  2.000000
                       2.000000  2.000000  2.000000  2.000000  2.000000  2.000000
                       0.000000  0.000000  0.000000  0.000000  0.000000  0.000000
                       0.000000  0.000000  0.000000
        optdriver           1
            prtwf          -1
            rfdir           1       1       1
           rfelfd           2
            rprim      9.9021951287E+00  0.0000000000E+00  0.0000000000E+00
                       0.0000000000E+00  1.6590135420E+01  0.0000000000E+00
                       0.0000000000E+00  0.0000000000E+00  2.0025699107E+01
          spgroup          62
           strten      0.0000000000E+00  0.0000000000E+00  0.0000000000E+00
                       0.0000000000E+00  0.0000000000E+00  0.0000000000E+00
           symrel      1  0  0   0  1  0   0  0  1      -1  0  0   0 -1  0   0  0 -1
                      -1  0  0   0  1  0   0  0 -1       1  0  0   0 -1  0   0  0  1
                      -1  0  0   0 -1  0   0  0  1       1  0  0   0  1  0   0  0 -1
                       1  0  0   0 -1  0   0  0 -1      -1  0  0   0  1  0   0  0  1
            tnons      0.0000000  0.0000000  0.0000000     0.0000000  0.0000000  0.0000000
                       0.5000000  0.5000000  0.5000000     0.5000000  0.5000000  0.5000000
                       0.0000000  0.5000000  0.5000000     0.0000000  0.5000000  0.5000000
                       0.5000000  0.0000000  0.0000000     0.5000000  0.0000000  0.0000000
           tolwfr      1.00000000E-20
            typat      1  1  1  1  2  2  2  2  2  2  2  2
           useylm           1
           xangst      1.3100039943E+00  6.5658874502E+00  4.0311534078E+00
                       3.9300119828E+00  2.2132341014E+00  6.5659901459E+00
                       1.3100039943E+00  2.1763266744E+00  1.2674183690E+00
                       3.9300119828E+00  6.6027948772E+00  9.3297251846E+00
                       1.3100039943E+00  4.6227869190E+00  7.0750981165E+00
                       3.9300119828E+00  4.1563346327E+00  3.5220454372E+00
                       1.3100039943E+00  2.3322614314E-01  8.8206172140E+00
                       3.9300119828E+00  8.5458954085E+00  1.7765263396E+00
                       3.9300119828E+00  7.5216440762E+00  6.0400857027E+00
                       1.3100039943E+00  1.2574774754E+00  4.5570578510E+00
                       3.9300119828E+00  3.1320833004E+00  9.8556296278E+00
                       1.3100039943E+00  5.6470382513E+00  7.4151392588E-01
            xcart      2.4755487822E+00  1.2407729100E+01  7.6177759404E+00
                       7.4266463465E+00  4.1824063196E+00  1.2407923167E+01
                       2.4755487822E+00  4.1126613903E+00  2.3950736132E+00
                       7.4266463465E+00  1.2477474030E+01  1.7630625494E+01
                       2.4755487822E+00  8.7358012475E+00  1.3369997803E+01
                       7.4266463465E+00  7.8543341724E+00  6.6557013039E+00
                       2.4755487822E+00  4.4073353757E-01  1.6668550858E+01
                       7.4266463465E+00  1.6149401882E+01  3.3571482497E+00
                       7.4266463465E+00  1.4213847373E+01  1.1414107797E+01
                       2.4755487822E+00  2.3762880469E+00  8.6115913100E+00
                       7.4266463465E+00  5.9187796631E+00  1.8624440864E+01
                       2.4755487822E+00  1.0671355757E+01  1.4012582436E+00
             xred      2.5000000000E-01  7.4789800000E-01  3.8040000000E-01
                       7.5000000000E-01  2.5210200000E-01  6.1960000000E-01
                       2.5000000000E-01  2.4789800000E-01  1.1960000000E-01
                       7.5000000000E-01  7.5210200000E-01  8.8040000000E-01
                       2.5000000000E-01  5.2656600000E-01  6.6764200000E-01
                       7.5000000000E-01  4.7343400000E-01  3.3235800000E-01
                       2.5000000000E-01  2.6566000000E-02  8.3235800000E-01
                       7.5000000000E-01  9.7343400000E-01  1.6764200000E-01
                       7.5000000000E-01  8.5676500000E-01  5.6997300000E-01
                       2.5000000000E-01  1.4323500000E-01  4.3002700000E-01
                       7.5000000000E-01  3.5676500000E-01  9.3002700000E-01
                       2.5000000000E-01  6.4323500000E-01  6.9973000000E-02
            znucl       56.00000   53.00000
 
================================================================================


- Timing analysis has been suppressed with timopt=0



================================================================================

 Suggested references for the acknowledgment of ABINIT usage.

 The users of ABINIT have little formal obligations with respect to the ABINIT group
 (those specified in the GNU General Public License, http://www.gnu.org/copyleft/gpl.txt).
 However, it is common practice in the scientific literature,
 to acknowledge the efforts of people that have made the research possible.
 In this spirit, please find below suggested citations of work written by ABINIT developers,
 corresponding to implementations inside of ABINIT that you have used in the present run.
 Note also that it will be of great value to readers of publications presenting these results,
 to read papers enabling them to understand the theoretical formalism and details
 of the ABINIT implementation.
 For information on why they are suggested, see also https://docs.abinit.org/theory/acknowledgments.
-
- [1] Precise effective masses from density functional perturbation theory
- J. Laflamme Janssen, Y. Gillet, S. Ponce, A. Martin, M. Torrent, and X. Gonze. Phys. Rev. B 93, 205147 (2016)
- Comment: in case the DFPT prediction of effective masses is used.
- Strong suggestion to cite this paper in your publications.
- DOI and bibtex: see https://docs.abinit.org/theory/bibliography/#laflamme2016
-
- [2] Libxc: A library of exchange and correlation functionals for density functional theory.
- M.A.L. Marques, M.J.T. Oliveira, T. Burnus, Computer Physics Communications 183, 2227 (2012).
- Comment: to be cited when LibXC is used (negative value of ixc)
- Strong suggestion to cite this paper.
- DOI and bibtex: see https://docs.abinit.org/theory/bibliography/#marques2012
-
- [3] The Abinit project: Impact, environment and recent developments.
- Computer Phys. Comm. 248, 107042 (2020).
- X.Gonze, B. Amadon, G. Antonius, F.Arnardi, L.Baguet, J.-M.Beuken,
- J.Bieder, F.Bottin, J.Bouchet, E.Bousquet, N.Brouwer, F.Bruneval,
- G.Brunin, T.Cavignac, J.-B. Charraud, Wei Chen, M.Cote, S.Cottenier,
- J.Denier, G.Geneste, Ph.Ghosez, M.Giantomassi, Y.Gillet, O.Gingras,
- D.R.Hamann, G.Hautier, Xu He, N.Helbig, N.Holzwarth, Y.Jia, F.Jollet,
- W.Lafargue-Dit-Hauret, K.Lejaeghere, M.A.L.Marques, A.Martin, C.Martins,
- H.P.C. Miranda, F.Naccarato, K. Persson, G.Petretto, V.Planes, Y.Pouillon,
- S.Prokhorenko, F.Ricci, G.-M.Rignanese, A.H.Romero, M.M.Schmitt, M.Torrent,
- M.J.van Setten, B.Van Troeye, M.J.Verstraete, G.Zerah and J.W.Zwanzig
- Comment: the fifth generic paper describing the ABINIT project.
- Note that a version of this paper, that is not formatted for Computer Phys. Comm. 
- is available at https://www.abinit.org/sites/default/files/ABINIT20.pdf .
- The licence allows the authors to put it on the Web.
- DOI and bibtex: see https://docs.abinit.org/theory/bibliography/#gonze2020
-
- [4] First-principles responses of solids to atomic displacements and homogeneous electric fields:,
- implementation of a conjugate-gradient algorithm. X. Gonze, Phys. Rev. B55, 10337 (1997).
- Comment: Non-vanishing rfphon and/or rfelfd, in the norm-conserving case.
- DOI and bibtex: see https://docs.abinit.org/theory/bibliography/#gonze1997
-
- [5] Dynamical matrices, Born effective charges, dielectric permittivity tensors, and ,
- interatomic force constants from density-functional perturbation theory,
- X. Gonze and C. Lee, Phys. Rev. B55, 10355 (1997).
- Comment: Non-vanishing rfphon and/or rfelfd, in the norm-conserving case.
- DOI and bibtex: see https://docs.abinit.org/theory/bibliography/#gonze1997a
-
- [6] Optimized norm-conserving Vanderbilt pseudopotentials.
- D.R. Hamann, Phys. Rev. B 88, 085117 (2013).
- Comment: Some pseudopotential generated using the ONCVPSP code were used.
- DOI and bibtex: see https://docs.abinit.org/theory/bibliography/#hamann2013
-
- [7] ABINIT: Overview, and focus on selected capabilities
- J. Chem. Phys. 152, 124102 (2020).
- A. Romero, D.C. Allan, B. Amadon, G. Antonius, T. Applencourt, L.Baguet,
- J.Bieder, F.Bottin, J.Bouchet, E.Bousquet, F.Bruneval,
- G.Brunin, D.Caliste, M.Cote,
- J.Denier, C. Dreyer, Ph.Ghosez, M.Giantomassi, Y.Gillet, O.Gingras,
- D.R.Hamann, G.Hautier, F.Jollet, G. Jomard,
- A.Martin, 
- H.P.C. Miranda, F.Naccarato, G.Petretto, N.A. Pike, V.Planes,
- S.Prokhorenko, T. Rangel, F.Ricci, G.-M.Rignanese, M.Royo, M.Stengel, M.Torrent,
- M.J.van Setten, B.Van Troeye, M.J.Verstraete, J.Wiktor, J.W.Zwanziger, and X.Gonze.
- Comment: a global overview of ABINIT, with focus on selected capabilities .
- Note that a version of this paper, that is not formatted for J. Chem. Phys 
- is available at https://www.abinit.org/sites/default/files/ABINIT20_JPC.pdf .
- The licence allows the authors to put it on the Web.
- DOI and bibtex: see https://docs.abinit.org/theory/bibliography/#romero2020
-
- [8] Recent developments in the ABINIT software package.
- Computer Phys. Comm. 205, 106 (2016).
- X.Gonze, F.Jollet, F.Abreu Araujo, D.Adams, B.Amadon, T.Applencourt,
- C.Audouze, J.-M.Beuken, J.Bieder, A.Bokhanchuk, E.Bousquet, F.Bruneval
- D.Caliste, M.Cote, F.Dahm, F.Da Pieve, M.Delaveau, M.Di Gennaro,
- B.Dorado, C.Espejo, G.Geneste, L.Genovese, A.Gerossier, M.Giantomassi,
- Y.Gillet, D.R.Hamann, L.He, G.Jomard, J.Laflamme Janssen, S.Le Roux,
- A.Levitt, A.Lherbier, F.Liu, I.Lukacevic, A.Martin, C.Martins,
- M.J.T.Oliveira, S.Ponce, Y.Pouillon, T.Rangel, G.-M.Rignanese,
- A.H.Romero, B.Rousseau, O.Rubel, A.A.Shukri, M.Stankovski, M.Torrent,
- M.J.Van Setten, B.Van Troeye, M.J.Verstraete, D.Waroquier, J.Wiktor,
- B.Xu, A.Zhou, J.W.Zwanziger.
- Comment: the fourth generic paper describing the ABINIT project.
- Note that a version of this paper, that is not formatted for Computer Phys. Comm. 
- is available at https://www.abinit.org/sites/default/files/ABINIT16.pdf .
- The licence allows the authors to put it on the Web.
- DOI and bibtex: see https://docs.abinit.org/theory/bibliography/#gonze2016
-
- Proc.   0 individual time (sec): cpu=        525.3  wall=        530.5
 
================================================================================
 
 Calculation completed.
.Delivered   2 WARNINGs and   5 COMMENTs to log file.
+Overall time at end (sec) : cpu=        525.3  wall=        530.5
