
.Version 9.7.2 of ABINIT 
.(MPI version, prepared for a x86_64_linux_intel19.1 computer) 

.Copyright (C) 1998-2021 ABINIT group . 
 ABINIT comes with ABSOLUTELY NO WARRANTY.
 It is free software, and you are welcome to redistribute it
 under certain conditions (GNU General Public License,
 see ~abinit/COPYING or http://www.gnu.org/copyleft/gpl.txt).

 ABINIT is a project of the Universite Catholique de Louvain,
 Corning Inc. and other collaborators, see ~abinit/doc/developers/contributors.txt .
 Please read https://docs.abinit.org/theory/acknowledgments for suggested
 acknowledgments of the ABINIT effort.
 For more information, see https://www.abinit.org .

.Starting date : Wed  1 Dec 2021.
- ( at 21h35 )
  
- input  file    -> /scratch/users/j/a/jabreu/flow_simple_remain_atoms/flow/w218/t1/run.abi
- output file    -> /scratch/users/j/a/jabreu/flow_simple_remain_atoms/flow/w218/t1/run.abo
- root for input  files -> /scratch/users/j/a/jabreu/flow_simple_remain_atoms/flow/w218/t1/indata/in
- root for output files -> /scratch/users/j/a/jabreu/flow_simple_remain_atoms/flow/w218/t1/outdata/out
 
 
 Symmetries : space group R3 m (#160); Bravais hR (rhombohedral)
================================================================================
 Values of the parameters that define the memory need of the present run (RF).
     intxc =       0      iscf =       7    lmnmax =      32     lnmax =       8
     mgfft =      54  mpssoang =       4    mqgrid =    3001     natom =       5
  nloc_mem =       1    nspden =       1   nspinor =       1    nsppol =       1
      nsym =       6    n1xccc =    2501    ntypat =       3    occopt =       1
   xclevel =       2
-    mband =          26        mffmem =           1         mkmem =           1
-   mkqmem =           1        mk1mem =           1           mpw =        9244
      nfft =      157464          nkpt =           1
================================================================================
P This job should need less than                     127.791 Mbytes of memory.
  Rough estimation (10% accuracy) of disk space for files :
_ WF disk file :      3.669 Mbytes ; DEN or POT disk file :      1.203 Mbytes.
================================================================================
 
--------------------------------------------------------------------------------
------------- Echo of variables that govern the present computation ------------
--------------------------------------------------------------------------------
-
- outvars: echo of selected default values                                      
-   iomode0 =  0 , fftalg0 =512 , wfoptalg0 =  0
-
- outvars: echo of global parameters not present in the input file              
-  max_nthreads =    0
-
 -outvars: echo values of preprocessed input variables --------
            acell      1.0000000000E+00  1.0000000000E+00  1.0000000000E+00 Bohr
              amu      1.32905430E+02  7.99040000E+01  1.59994000E+01
             ecut      4.40000000E+01 Hartree
-          fftalg         512
           irdden           1
           irdwfk           1
           istwfk        1
              ixc     -116133
              kpt      5.00000000E-01  5.00000000E-01  5.00000000E-01
           kptopt           0
P           mkmem           1
P          mkqmem           1
P          mk1mem           1
            natom           5
            nband          26
           nbdbuf           4
            ngfft          54      54      54
             nkpt           1
            nstep        2000
             nsym           6
           ntypat           3
              occ      2.000000  2.000000  2.000000  2.000000  2.000000  2.000000
                       2.000000  2.000000  2.000000  2.000000  2.000000  2.000000
                       2.000000  2.000000  2.000000  2.000000  2.000000  0.000000
                       0.000000  0.000000  0.000000  0.000000  0.000000  0.000000
                       0.000000  0.000000
        optdriver           1
            prtwf          -1
            rfdir           1       1       1
           rfelfd           2
            rprim      8.7211828954E+00  0.0000000000E+00  2.6518360820E-01
                       2.5724277570E-01  8.7173882126E+00  2.6518360820E-01
                       0.0000000000E+00  0.0000000000E+00  8.7252136616E+00
          spgroup         160
           symrel      1  0  0   0  1  0   0  0  1       0  1  0   1  0  0   0  0  1
                       0  0  1   1  0  0   0  1  0       1  0  0   0  0  1   0  1  0
                       0  1  0   0  0  1   1  0  0       0  0  1   0  1  0   1  0  0
           tolwfr      1.00000000E-20
            typat      1  2  3  3  3
           useylm           1
           xangst      6.2097899521E-03  6.0292474108E-03  6.4014800859E-03
                       2.2298372224E+00  2.1650072552E+00  2.2986701135E+00
                       2.4299595179E+00  5.1661009051E-01  2.5049699883E+00
                       5.8806016411E-01  2.4136641207E+00  2.5049699883E+00
                       2.4859399827E+00  2.4136641207E+00  6.6392153238E-01
            xcart      1.1734802352E-02  1.1393626394E-02  1.2097044208E-02
                       4.2137816712E+00  4.0912707881E+00  4.3438569844E+00
                       4.5919580028E+00  9.7625158854E-01  4.7337072490E+00
                       1.1112726598E+00  4.5611641649E+00  4.7337072490E+00
                       4.6977457502E+00  4.5611641649E+00  1.2546298699E+00
             xred      1.3070000000E-03  1.3070000000E-03  1.3070000000E-03
                       4.6932300000E-01  4.6932300000E-01  4.6932300000E-01
                       5.2322600000E-01  1.1198900000E-01  5.2322600000E-01
                       1.1198900000E-01  5.2322600000E-01  5.2322600000E-01
                       5.2322600000E-01  5.2322600000E-01  1.1198900000E-01
            znucl       55.00000   35.00000    8.00000
 
================================================================================
 
 chkinp: Checking input parameters for consistency.
 
================================================================================
== DATASET  1 ==================================================================
-   mpi_nproc: 1, omp_nthreads: -1 (-1 if OMP is not activated)
 

--- !DatasetInfo
iteration_state: {dtset: 1, }
dimensions: {natom: 5, nkpt: 1, mband: 26, nsppol: 1, nspinor: 1, nspden: 1, mpw: 9244, }
cutoff_energies: {ecut:  44.0, pawecutdg:  -1.0, }
electrons: {nelect:   3.40000000E+01, charge:   0.00000000E+00, occopt:   1.00000000E+00, tsmear:   1.00000000E-02, }
meta: {optdriver: 1, rfelfd: 2, }
...

 Real(R)+Recip(G) space primitive vectors, cartesian coordinates (Bohr,Bohr^-1):
 R(1)=  8.7211829  0.0000000  0.2651836  G(1)=  0.1146633 -0.0033836  0.0000000
 R(2)=  0.2572428  8.7173882  0.2651836  G(2)=  0.0000000  0.1147133  0.0000000
 R(3)=  0.0000000  0.0000000  8.7252137  G(3)= -0.0034849 -0.0033836  0.1146104
 Unit cell volume ucvol=  6.6334254E+02 bohr^3
 Angles (23,13,12)=  8.82583531E+01  8.82583531E+01  8.82583531E+01 degrees
 
 getcut: wavevector=  0.0000  0.0000  0.0000  ngfft=  54  54  54
         ecut(hartree)=     44.000   => boxcut(ratio)=   2.07274
 
--- Pseudopotential description ------------------------------------------------
- pspini: atom type   1  psp file is /scratch/users/j/a/jabreu/pseudos/PBEsol/Cs.psp8
- pspatm: opening atomic psp file    /scratch/users/j/a/jabreu/pseudos/PBEsol/Cs.psp8
- Cs    ONCVPSP-3.3.0  r_core=   2.27353   1.85623   2.01788   1.90105
- 55.00000   9.00000    180112                znucl, zion, pspdat
    8 -116133    3    4       600   0.00000   pspcod,pspxc,lmax,lloc,mmax,r2well
    5.99000000000000    5.00000000000000    0.00000000000000   rchrg,fchrg,qchrg
     nproj     2     2     2     2
     extension_switch     1
  pspatm : epsatm=   22.12462445
         --- l  ekb(1:nproj) -->
             0    6.214110    0.767882
             1    6.311966    0.793598
             2    3.769790    0.913105
             3   -9.247129   -2.432478
 pspatm: atomic psp has been read  and splines computed
 
- pspini: atom type   2  psp file is /scratch/users/j/a/jabreu/pseudos/PBEsol/Br.psp8
- pspatm: opening atomic psp file    /scratch/users/j/a/jabreu/pseudos/PBEsol/Br.psp8
- Br    ONCVPSP-3.3.0  r_core=   1.81012   1.51356   1.92136
- 35.00000   7.00000    180112                znucl, zion, pspdat
    8 -116133    2    4       600   0.00000   pspcod,pspxc,lmax,lloc,mmax,r2well
    5.99000000000000    8.00000000000000    0.00000000000000   rchrg,fchrg,qchrg
     nproj     2     2     2
     extension_switch     1
  pspatm : epsatm=   10.94933070
         --- l  ekb(1:nproj) -->
             0    8.508690    0.897946
             1    5.393311    0.892021
             2    2.527513    0.394763
 pspatm: atomic psp has been read  and splines computed
 
- pspini: atom type   3  psp file is /scratch/users/j/a/jabreu/pseudos/PBEsol/O.psp8
- pspatm: opening atomic psp file    /scratch/users/j/a/jabreu/pseudos/PBEsol/O.psp8
- O     ONCVPSP-3.3.0  r_core=   1.35509   1.45563   1.26150
-  8.00000   6.00000    180112                znucl, zion, pspdat
    8 -116133    2    4       600   0.00000   pspcod,pspxc,lmax,lloc,mmax,r2well
    5.99000000000000    4.00000000000000    0.00000000000000   rchrg,fchrg,qchrg
     nproj     2     2     1
     extension_switch     1
  pspatm : epsatm=    6.22910522
         --- l  ekb(1:nproj) -->
             0    6.050032    0.820363
             1   -4.739617   -1.153841
             2   -1.335834
 pspatm: atomic psp has been read  and splines computed
 
   1.75988321E+03                                ecore*ucvol(ha*bohr**3)
--------------------------------------------------------------------------------
 
 
 ==>  initialize data related to q vector <== 
 
 The list of irreducible perturbations for this q vector is:
    1)    idir= 1    ipert=   6
    2)    idir= 2    ipert=   6
    3)    idir= 3    ipert=   6
 
================================================================================
 
--------------------------------------------------------------------------------
 Perturbation wavevector (in red.coord.)   0.000000  0.000000  0.000000
 Perturbation : derivative vs k along direction   1
 
 dfpt_looppert : COMMENT -
  In a d/dk calculation, iscf is set to -3 automatically.
 The set of symmetries contains only one element for this perturbation.
 symkpt : not enough symmetry to change the number of k points.
 
--------------------------------------------------------------------------------
 
--------------------------------------------------------------------------------
 
 Initialisation of the first-order wave-functions :
  ireadwf=   0

--- !BeginCycle
iteration_state: {dtset: 1, }
solver: {iscf: 7, nstep: 2000, nline: 4, wfoptalg: 0, }
tolerances: {tolwfr: 1.00E-20, }
...
 
     iter   2DEtotal(Ha)        deltaE(Ha) residm    vres2
-ETOT  1  -20.529541982208     -2.053E+01 5.884E-02 0.000E+00
 ETOT  2  -20.544690490326     -1.515E-02 2.871E-03 0.000E+00
 ETOT  3  -20.545160830445     -4.703E-04 6.738E-04 0.000E+00
 ETOT  4  -20.545191593842     -3.076E-05 7.335E-05 0.000E+00
 ETOT  5  -20.545193867557     -2.274E-06 2.733E-05 0.000E+00
 ETOT  6  -20.545194050739     -1.832E-07 3.245E-06 0.000E+00
 ETOT  7  -20.545194066162     -1.542E-08 1.374E-06 0.000E+00
 ETOT  8  -20.545194067509     -1.347E-09 1.551E-07 0.000E+00
 ETOT  9  -20.545194067630     -1.210E-10 7.020E-08 0.000E+00
 ETOT 10  -20.545194067641     -1.112E-11 7.609E-09 0.000E+00
 ETOT 11  -20.545194067642     -1.062E-12 3.597E-09 0.000E+00
 ETOT 12  -20.545194067642     -7.105E-14 4.002E-10 0.000E+00
 ETOT 13  -20.545194067642     -4.974E-14 1.844E-10 0.000E+00
 ETOT 14  -20.545194067642      1.066E-14 2.619E-11 0.000E+00
 ETOT 15  -20.545194067642     -3.553E-15 9.453E-12 0.000E+00
 ETOT 16  -20.545194067642      3.553E-15 1.715E-12 0.000E+00
 ETOT 17  -20.545194067642     -1.066E-14 4.847E-13 0.000E+00
 ETOT 18  -20.545194067642      0.000E+00 1.124E-13 0.000E+00
 ETOT 19  -20.545194067642      3.553E-15 3.019E-14 0.000E+00
 ETOT 20  -20.545194067642      0.000E+00 7.372E-15 0.000E+00
 ETOT 21  -20.545194067642     -3.553E-15 1.976E-15 0.000E+00
 ETOT 22  -20.545194067642      3.553E-15 4.841E-16 0.000E+00
 ETOT 23  -20.545194067642      3.553E-15 1.294E-16 0.000E+00
 ETOT 24  -20.545194067642      0.000E+00 3.182E-17 0.000E+00
 ETOT 25  -20.545194067642      3.553E-15 8.482E-18 0.000E+00
 ETOT 26  -20.545194067642     -3.553E-15 2.094E-18 0.000E+00
 ETOT 27  -20.545194067642     -3.553E-15 5.565E-19 0.000E+00
 ETOT 28  -20.545194067642      1.066E-14 1.379E-19 0.000E+00
 ETOT 29  -20.545194067642     -3.553E-15 3.654E-20 0.000E+00
 ETOT 30  -20.545194067642     -3.553E-15 9.931E-21 0.000E+00
 
 At SCF step   30   max residual=  9.93E-21 < tolwfr=  1.00E-20 =>converged.
================================================================================
 
 ----iterations are completed or convergence reached----
 
 dfpt_looppert: DFPT cycle converged with prtwf=-1. Will skip output of the 1st-order WFK file.
 dfpt_looppert : ek2=    3.5326114773E+01
          f-sum rule ratio=    1.1219677568E+00
 prteigrs : about to open file /scratch/users/j/a/jabreu/flow_simple_remain_atoms/flow/w218/t1/tmpdata/tmp_1WF1_EIG
 Expectation of eigenvalue derivatives (hartree) for nkpt=   1  k points:
  (in case of degenerate eigenvalues, averaged derivative)
 kpt#   1, nband= 26, wtk=  1.00000, kpt=  0.5000  0.5000  0.5000 (reduced coord)
   0.00000   -0.00000    0.00000    0.00000    0.00000   -0.00000    0.00000    0.00000
   0.00000    0.00000    0.00000   -0.00000   -0.00000    0.00000    0.00000    0.00000
  -0.00000   -0.00000   -0.00000    0.00000    0.00000    0.00000    0.00000   -0.00000
   0.00001    0.00001
 
 Eight components of 2nd-order total energy (hartree) are
 1,2,3: 0th-order hamiltonian combined with 1st-order wavefunctions
     kin0=   1.88136865E+01 eigvalue=   4.33901009E-01  local=  -7.91059461E+00
 4,5,6: 1st-order hamiltonian combined with 1st and 0th-order wfs
     kin1=  -3.96347617E+01  Hartree=   0.00000000E+00     xc=   0.00000000E+00
 7,8,9: eventually, occupation + non-local contributions
    edocc=   9.30110784E+00     enl0=  -9.29066950E-02   enl1=  -1.45562639E+00
 1-9 gives the relaxation energy (to be shifted if some occ is /=2.0)
   erelax=  -2.05451941E+01
  No Ewald or frozen-wf contrib.: the relaxation energy is the total one
 2DEtotal=   -0.2054519407E+02 Ha. Also 2DEtotal=   -0.559063162253E+03 eV
    (  non-var. 2DEtotal :   -2.0545194068E+01 Ha)
 
--------------------------------------------------------------------------------
 Perturbation wavevector (in red.coord.)   0.000000  0.000000  0.000000
 Perturbation : derivative vs k along direction   2
 The set of symmetries contains only one element for this perturbation.
 symkpt : not enough symmetry to change the number of k points.
 
--------------------------------------------------------------------------------
 
--------------------------------------------------------------------------------
 
 Initialisation of the first-order wave-functions :
  ireadwf=   0

--- !BeginCycle
iteration_state: {dtset: 1, }
solver: {iscf: 7, nstep: 2000, nline: 4, wfoptalg: 0, }
tolerances: {tolwfr: 1.00E-20, }
...
 
     iter   2DEtotal(Ha)        deltaE(Ha) residm    vres2
-ETOT  1  -20.529138763473     -2.053E+01 5.884E-02 0.000E+00
 ETOT  2  -20.544688993261     -1.555E-02 2.896E-03 0.000E+00
 ETOT  3  -20.545162295732     -4.733E-04 7.740E-04 0.000E+00
 ETOT  4  -20.545192847976     -3.055E-05 1.060E-04 0.000E+00
 ETOT  5  -20.545195071481     -2.224E-06 3.557E-05 0.000E+00
 ETOT  6  -20.545195247625     -1.761E-07 5.315E-06 0.000E+00
 ETOT  7  -20.545195262333     -1.471E-08 1.752E-06 0.000E+00
 ETOT  8  -20.545195263617     -1.284E-09 2.867E-07 0.000E+00
 ETOT  9  -20.545195263732     -1.158E-10 9.365E-08 0.000E+00
 ETOT 10  -20.545195263743     -1.074E-11 1.577E-08 0.000E+00
 ETOT 11  -20.545195263744     -9.841E-13 5.141E-09 0.000E+00
 ETOT 12  -20.545195263744     -9.948E-14 8.747E-10 0.000E+00
 ETOT 13  -20.545195263744     -3.553E-15 2.853E-10 0.000E+00
 ETOT 14  -20.545195263744     -2.132E-14 4.873E-11 0.000E+00
 ETOT 15  -20.545195263744      7.105E-15 1.592E-11 0.000E+00
 ETOT 16  -20.545195263744     -1.066E-14 2.723E-12 0.000E+00
 ETOT 17  -20.545195263744      3.553E-15 8.922E-13 0.000E+00
 ETOT 18  -20.545195263744     -3.553E-15 1.526E-13 0.000E+00
 ETOT 19  -20.545195263744      0.000E+00 5.013E-14 0.000E+00
 ETOT 20  -20.545195263744      0.000E+00 8.565E-15 0.000E+00
 ETOT 21  -20.545195263744      3.553E-15 2.823E-15 0.000E+00
 ETOT 22  -20.545195263744     -3.553E-15 4.817E-16 0.000E+00
 ETOT 23  -20.545195263744      0.000E+00 1.593E-16 0.000E+00
 ETOT 24  -20.545195263744      0.000E+00 2.714E-17 0.000E+00
 ETOT 25  -20.545195263744      0.000E+00 9.003E-18 0.000E+00
 ETOT 26  -20.545195263744      0.000E+00 1.531E-18 0.000E+00
 ETOT 27  -20.545195263744      0.000E+00 5.095E-19 0.000E+00
 ETOT 28  -20.545195263744     -3.553E-15 8.644E-20 0.000E+00
 ETOT 29  -20.545195263744      1.066E-14 2.887E-20 0.000E+00
 ETOT 30  -20.545195263744     -7.105E-15 9.931E-21 0.000E+00
 
 At SCF step   30   max residual=  9.93E-21 < tolwfr=  1.00E-20 =>converged.
================================================================================
 
 ----iterations are completed or convergence reached----
 
 dfpt_looppert: DFPT cycle converged with prtwf=-1. Will skip output of the 1st-order WFK file.
 dfpt_looppert : ek2=    3.5326114773E+01
          f-sum rule ratio=    1.1219678081E+00
 prteigrs : about to open file /scratch/users/j/a/jabreu/flow_simple_remain_atoms/flow/w218/t1/tmpdata/tmp_1WF1_EIG
 Expectation of eigenvalue derivatives (hartree) for nkpt=   1  k points:
  (in case of degenerate eigenvalues, averaged derivative)
 kpt#   1, nband= 26, wtk=  1.00000, kpt=  0.5000  0.5000  0.5000 (reduced coord)
  -0.00000    0.00000    0.00000    0.00000    0.00000   -0.00000   -0.00000   -0.00000
   0.00000    0.00000    0.00000    0.00000    0.00000   -0.00000   -0.00000    0.00000
   0.00000    0.00000    0.00000   -0.00000    0.00000    0.00000    0.00000    0.00000
  -0.00000   -0.00000
 
 Eight components of 2nd-order total energy (hartree) are
 1,2,3: 0th-order hamiltonian combined with 1st-order wavefunctions
     kin0=   1.88137012E+01 eigvalue=   4.33901413E-01  local=  -7.91060487E+00
 4,5,6: 1st-order hamiltonian combined with 1st and 0th-order wfs
     kin1=  -3.96347636E+01  Hartree=   0.00000000E+00     xc=   0.00000000E+00
 7,8,9: eventually, occupation + non-local contributions
    edocc=   9.30110335E+00     enl0=  -9.29058150E-02   enl1=  -1.45562697E+00
 1-9 gives the relaxation energy (to be shifted if some occ is /=2.0)
   erelax=  -2.05451953E+01
  No Ewald or frozen-wf contrib.: the relaxation energy is the total one
 2DEtotal=   -0.2054519526E+02 Ha. Also 2DEtotal=   -0.559063194800E+03 eV
    (  non-var. 2DEtotal :   -2.0545195264E+01 Ha)
 
--------------------------------------------------------------------------------
 Perturbation wavevector (in red.coord.)   0.000000  0.000000  0.000000
 Perturbation : derivative vs k along direction   3
 The set of symmetries contains only one element for this perturbation.
 symkpt : not enough symmetry to change the number of k points.
 
--------------------------------------------------------------------------------
 
--------------------------------------------------------------------------------
 
 Initialisation of the first-order wave-functions :
  ireadwf=   0

--- !BeginCycle
iteration_state: {dtset: 1, }
solver: {iscf: 7, nstep: 2000, nline: 4, wfoptalg: 0, }
tolerances: {tolwfr: 1.00E-20, }
...
 
     iter   2DEtotal(Ha)        deltaE(Ha) residm    vres2
-ETOT  1  -20.526811392761     -2.053E+01 7.584E-02 0.000E+00
 ETOT  2  -20.544671534044     -1.786E-02 3.876E-03 0.000E+00
 ETOT  3  -20.545165180220     -4.936E-04 9.846E-04 0.000E+00
 ETOT  4  -20.545196502909     -3.132E-05 1.454E-04 0.000E+00
 ETOT  5  -20.545198766911     -2.264E-06 4.194E-05 0.000E+00
 ETOT  6  -20.545198946638     -1.797E-07 6.676E-06 0.000E+00
 ETOT  7  -20.545198961672     -1.503E-08 1.960E-06 0.000E+00
 ETOT  8  -20.545198962985     -1.313E-09 3.231E-07 0.000E+00
 ETOT  9  -20.545198963104     -1.183E-10 9.517E-08 0.000E+00
 ETOT 10  -20.545198963114     -1.093E-11 1.598E-08 0.000E+00
 ETOT 11  -20.545198963116     -1.052E-12 4.717E-09 0.000E+00
 ETOT 12  -20.545198963116     -5.684E-14 8.013E-10 0.000E+00
 ETOT 13  -20.545198963116     -1.421E-14 2.368E-10 0.000E+00
 ETOT 14  -20.545198963116     -3.553E-14 4.057E-11 0.000E+00
 ETOT 15  -20.545198963116      1.066E-14 1.199E-11 0.000E+00
 ETOT 16  -20.545198963116     -3.553E-15 2.068E-12 0.000E+00
 ETOT 17  -20.545198963116     -3.553E-15 6.102E-13 0.000E+00
 ETOT 18  -20.545198963116      7.105E-15 1.059E-13 0.000E+00
 ETOT 19  -20.545198963116      3.553E-15 3.119E-14 0.000E+00
 ETOT 20  -20.545198963116      3.553E-15 5.446E-15 0.000E+00
 ETOT 21  -20.545198963116     -3.553E-15 1.600E-15 0.000E+00
 ETOT 22  -20.545198963116      0.000E+00 2.809E-16 0.000E+00
 ETOT 23  -20.545198963116      3.553E-15 8.223E-17 0.000E+00
 ETOT 24  -20.545198963116      0.000E+00 1.452E-17 0.000E+00
 ETOT 25  -20.545198963116      0.000E+00 4.236E-18 0.000E+00
 ETOT 26  -20.545198963116     -3.553E-15 7.521E-19 0.000E+00
 ETOT 27  -20.545198963116      3.553E-15 2.186E-19 0.000E+00
 ETOT 28  -20.545198963116      0.000E+00 3.902E-20 0.000E+00
 ETOT 29  -20.545198963116      3.553E-15 1.130E-20 0.000E+00
 ETOT 30  -20.545198963116      0.000E+00 9.959E-21 0.000E+00
 
 At SCF step   30   max residual=  9.96E-21 < tolwfr=  1.00E-20 =>converged.
================================================================================
 
 ----iterations are completed or convergence reached----
 
 dfpt_looppert: DFPT cycle converged with prtwf=-1. Will skip output of the 1st-order WFK file.
 dfpt_looppert : ek2=    3.5326114773E+01
          f-sum rule ratio=    1.1219679700E+00
 prteigrs : about to open file /scratch/users/j/a/jabreu/flow_simple_remain_atoms/flow/w218/t1/tmpdata/tmp_1WF1_EIG
 Expectation of eigenvalue derivatives (hartree) for nkpt=   1  k points:
  (in case of degenerate eigenvalues, averaged derivative)
 kpt#   1, nband= 26, wtk=  1.00000, kpt=  0.5000  0.5000  0.5000 (reduced coord)
   0.00000   -0.00000    0.00000    0.00000   -0.00000    0.00000    0.00000    0.00000
   0.00000    0.00000    0.00000   -0.00000   -0.00000   -0.00000   -0.00000    0.00000
  -0.00000   -0.00000   -0.00000    0.00000    0.00000   -0.00000   -0.00000    0.00000
  -0.00000   -0.00000
 
 Eight components of 2nd-order total energy (hartree) are
 1,2,3: 0th-order hamiltonian combined with 1st-order wavefunctions
     kin0=   1.88136379E+01 eigvalue=   4.33899439E-01  local=  -7.91055851E+00
 4,5,6: 1st-order hamiltonian combined with 1st and 0th-order wfs
     kin1=  -3.96347693E+01  Hartree=   0.00000000E+00     xc=   0.00000000E+00
 7,8,9: eventually, occupation + non-local contributions
    edocc=   9.30113340E+00     enl0=  -9.29132670E-02   enl1=  -1.45562865E+00
 1-9 gives the relaxation energy (to be shifted if some occ is /=2.0)
   erelax=  -2.05451990E+01
  No Ewald or frozen-wf contrib.: the relaxation energy is the total one
 2DEtotal=   -0.2054519896E+02 Ha. Also 2DEtotal=   -0.559063295465E+03 eV
    (  non-var. 2DEtotal :   -2.0545198963E+01 Ha)
 
 CALCULATION OF EFFECTIVE MASSES
 NOTE : Additional infos (eff. mass eigenvalues, eigenvectors and, if degenerate, average mass) are available in stdout.

 K-point ( 0.500, 0.500, 0.500) | band =    17
 Effective mass tensor:
             -2.2494178074              0.5410656743              0.5744699525
              0.5410656743             -2.2813503273              0.5577685063
              0.5744699525              0.5577685063             -2.2144809574
 Effective mass tensor eigenvalues:
             -2.8066854494             -2.8066848595             -1.1318787832
 Angular average effective mass 1/(<1/m>)=  -1.8796153821
 Angular average effective mass for Frohlich model (<m**0.5>)**2=  -1.9984651774
 Effective masses along directions: (cart. coord. / red. coord. -> eff. mass)
    1:   1.000000  0.000000  0.000000 /   0.999565  0.029483  0.000000 ->  -1.8807298350
    2:   0.000000  1.000000  0.000000 /   0.000000  1.000000  0.000000 ->  -1.9169690186
    3:   0.000000  0.000000  1.000000 /   0.030365  0.030365  0.999078 ->  -1.8426186509
    4:   0.577350  0.577350  0.577350 /   0.577357  0.593641  0.560579 ->  -1.1322828086
    5:   0.000000  0.707107  0.707107 /   0.021172  0.717147  0.696600 ->  -1.4129174907
    6:   0.707107  0.000000  0.707107 /   0.716832  0.041673  0.696000 ->  -1.3926828626
    7:   0.707107  0.707107  0.000000 /   0.696908  0.717161  0.000000 ->  -1.4347222755

 COMMENTS: 
 - At k-point ( 0.500, 0.500, 0.500), bands    18 through    19
   are DEGENERATE (effective mass tensor is therefore not defined).
   See Section IIIB Eqs. (67)-(70) and Appendix E of PRB 93 205147 (2016).
 - Angular average effective mass for Frohlich model is to be averaged over degenerate bands. See later.
 - Associated theta integrals calculated with ntheta=   1000 points.

 K-point ( 0.500, 0.500, 0.500) | band =    18
 Transport equivalent effective mass tensor:
              1.7303683648             -0.0412052684             -0.0437490803
             -0.0412052684              1.7327990348             -0.0424769883
             -0.0437490803             -0.0424769883              1.7277067212
 Transport equivalent effective mass tensor eigenvalues:
              1.7728071294              1.7728061071              1.6452608844
 Angular average effective mass 1/(<1/m>)=   1.3124782471
 Angular average effective mass for Frohlich model (<m**0.5>)**2=   1.3386265146
 Effective masses along directions: (cart. coord. / red. coord. -> eff. mass)
    1:   1.000000  0.000000  0.000000 /   0.999565  0.029483  0.000000 ->   1.8490496486
    2:   0.000000  1.000000  0.000000 /   0.000000  1.000000  0.000000 ->   1.8505713905
    3:   0.000000  0.000000  1.000000 /   0.030365  0.030365  0.999078 ->   1.8466230001
    4:   0.577350  0.577350  0.577350 /   0.577357  0.593641  0.560579 ->   0.8596663049
    5:   0.000000  0.707107  0.707107 /   0.021172  0.717147  0.696600 ->   1.2630792053
    6:   0.707107  0.000000  0.707107 /   0.716832  0.041673  0.696000 ->   1.2549920275
    7:   0.707107  0.707107  0.000000 /   0.696908  0.717161  0.000000 ->   1.2702626191

 K-point ( 0.500, 0.500, 0.500) | band =    19
 Transport equivalent effective mass tensor:
              0.7751253841             -0.0503432690             -0.0534514281
             -0.0503432690              0.7780967043             -0.0518976008
             -0.0534514281             -0.0518976008              0.7718733938
 Transport equivalent effective mass tensor eigenvalues:
              0.8269762658              0.8269754688              0.6711437476
 Angular average effective mass 1/(<1/m>)=   0.7001522412
 Angular average effective mass for Frohlich model (<m**0.5>)**2=   0.7055639795
 Effective masses along directions: (cart. coord. / red. coord. -> eff. mass)
    1:   1.000000  0.000000  0.000000 /   0.999565  0.029483  0.000000 ->   0.6063550725
    2:   0.000000  1.000000  0.000000 /   0.000000  1.000000  0.000000 ->   0.6080860206
    3:   0.000000  0.000000  1.000000 /   0.030365  0.030365  0.999078 ->   0.6045544828
    4:   0.577350  0.577350  0.577350 /   0.577357  0.593641  0.560579 ->   0.8288615691
    5:   0.000000  0.707107  0.707107 /   0.021172  0.717147  0.696600 ->   0.6719022792
    6:   0.707107  0.000000  0.707107 /   0.716832  0.041673  0.696000 ->   0.6718318314
    7:   0.707107  0.707107  0.000000 /   0.696908  0.717161  0.000000 ->   0.6723640494

 Angular average effective mass for Frohlich model, averaged over degenerate bands.
 Value of     (<<m**0.5>>)**2 =     9.969711E-01
 Absolute Value of <<m**0.5>> =     9.984844E-01


 END OF EFFECTIVE MASSES SECTION

================================================================================
 
 ---- first-order wavefunction calculations are completed ----
 
 
 Total localisation tensor (bohr^2) in cartesian coordinates
  WARNING : still subject to testing - especially symmetries.
      direction              matrix element
   alpha     beta       real part   imaginary part
     1        1       1.0995421928    0.0000000000
     1        2       0.0323901549    0.0000000000
     1        3       0.0343898509    0.0000000000
     2        1       0.0323901549    0.0000000000
     2        2       1.0976306475    0.0000000000
     2        3       0.0333900072    0.0000000000
     3        1       0.0343898509    0.0000000000
     3        2       0.0333900072    0.0000000000
     3        3       1.1016338887    0.0000000000
 
 respfn : d/dk was computed, but no 2DTE, so no DDB output.
 
== END DATASET(S) ==============================================================
================================================================================
  
 -outvars: echo values of variables after computation  --------
            acell      1.0000000000E+00  1.0000000000E+00  1.0000000000E+00 Bohr
              amu      1.32905430E+02  7.99040000E+01  1.59994000E+01
             ecut      4.40000000E+01 Hartree
           etotal     -2.0545198963E+01
            fcart      0.0000000000E+00  0.0000000000E+00  0.0000000000E+00
                       0.0000000000E+00  0.0000000000E+00  0.0000000000E+00
                       0.0000000000E+00  0.0000000000E+00  0.0000000000E+00
                       0.0000000000E+00  0.0000000000E+00  0.0000000000E+00
                       0.0000000000E+00  0.0000000000E+00  0.0000000000E+00
-          fftalg         512
           irdden           1
           irdwfk           1
           istwfk        1
              ixc     -116133
              kpt      5.00000000E-01  5.00000000E-01  5.00000000E-01
           kptopt           0
P           mkmem           1
P          mkqmem           1
P          mk1mem           1
            natom           5
            nband          26
           nbdbuf           4
            ngfft          54      54      54
             nkpt           1
            nstep        2000
             nsym           6
           ntypat           3
              occ      2.000000  2.000000  2.000000  2.000000  2.000000  2.000000
                       2.000000  2.000000  2.000000  2.000000  2.000000  2.000000
                       2.000000  2.000000  2.000000  2.000000  2.000000  0.000000
                       0.000000  0.000000  0.000000  0.000000  0.000000  0.000000
                       0.000000  0.000000
        optdriver           1
            prtwf          -1
            rfdir           1       1       1
           rfelfd           2
            rprim      8.7211828954E+00  0.0000000000E+00  2.6518360820E-01
                       2.5724277570E-01  8.7173882126E+00  2.6518360820E-01
                       0.0000000000E+00  0.0000000000E+00  8.7252136616E+00
          spgroup         160
           strten      0.0000000000E+00  0.0000000000E+00  0.0000000000E+00
                       0.0000000000E+00  0.0000000000E+00  0.0000000000E+00
           symrel      1  0  0   0  1  0   0  0  1       0  1  0   1  0  0   0  0  1
                       0  0  1   1  0  0   0  1  0       1  0  0   0  0  1   0  1  0
                       0  1  0   0  0  1   1  0  0       0  0  1   0  1  0   1  0  0
           tolwfr      1.00000000E-20
            typat      1  2  3  3  3
           useylm           1
           xangst      6.2097899521E-03  6.0292474108E-03  6.4014800859E-03
                       2.2298372224E+00  2.1650072552E+00  2.2986701135E+00
                       2.4299595179E+00  5.1661009051E-01  2.5049699883E+00
                       5.8806016411E-01  2.4136641207E+00  2.5049699883E+00
                       2.4859399827E+00  2.4136641207E+00  6.6392153238E-01
            xcart      1.1734802352E-02  1.1393626394E-02  1.2097044208E-02
                       4.2137816712E+00  4.0912707881E+00  4.3438569844E+00
                       4.5919580028E+00  9.7625158854E-01  4.7337072490E+00
                       1.1112726598E+00  4.5611641649E+00  4.7337072490E+00
                       4.6977457502E+00  4.5611641649E+00  1.2546298699E+00
             xred      1.3070000000E-03  1.3070000000E-03  1.3070000000E-03
                       4.6932300000E-01  4.6932300000E-01  4.6932300000E-01
                       5.2322600000E-01  1.1198900000E-01  5.2322600000E-01
                       1.1198900000E-01  5.2322600000E-01  5.2322600000E-01
                       5.2322600000E-01  5.2322600000E-01  1.1198900000E-01
            znucl       55.00000   35.00000    8.00000
 
================================================================================


- Timing analysis has been suppressed with timopt=0



================================================================================

 Suggested references for the acknowledgment of ABINIT usage.

 The users of ABINIT have little formal obligations with respect to the ABINIT group
 (those specified in the GNU General Public License, http://www.gnu.org/copyleft/gpl.txt).
 However, it is common practice in the scientific literature,
 to acknowledge the efforts of people that have made the research possible.
 In this spirit, please find below suggested citations of work written by ABINIT developers,
 corresponding to implementations inside of ABINIT that you have used in the present run.
 Note also that it will be of great value to readers of publications presenting these results,
 to read papers enabling them to understand the theoretical formalism and details
 of the ABINIT implementation.
 For information on why they are suggested, see also https://docs.abinit.org/theory/acknowledgments.
-
- [1] Precise effective masses from density functional perturbation theory
- J. Laflamme Janssen, Y. Gillet, S. Ponce, A. Martin, M. Torrent, and X. Gonze. Phys. Rev. B 93, 205147 (2016)
- Comment: in case the DFPT prediction of effective masses is used.
- Strong suggestion to cite this paper in your publications.
- DOI and bibtex: see https://docs.abinit.org/theory/bibliography/#laflamme2016
-
- [2] Libxc: A library of exchange and correlation functionals for density functional theory.
- M.A.L. Marques, M.J.T. Oliveira, T. Burnus, Computer Physics Communications 183, 2227 (2012).
- Comment: to be cited when LibXC is used (negative value of ixc)
- Strong suggestion to cite this paper.
- DOI and bibtex: see https://docs.abinit.org/theory/bibliography/#marques2012
-
- [3] The Abinit project: Impact, environment and recent developments.
- Computer Phys. Comm. 248, 107042 (2020).
- X.Gonze, B. Amadon, G. Antonius, F.Arnardi, L.Baguet, J.-M.Beuken,
- J.Bieder, F.Bottin, J.Bouchet, E.Bousquet, N.Brouwer, F.Bruneval,
- G.Brunin, T.Cavignac, J.-B. Charraud, Wei Chen, M.Cote, S.Cottenier,
- J.Denier, G.Geneste, Ph.Ghosez, M.Giantomassi, Y.Gillet, O.Gingras,
- D.R.Hamann, G.Hautier, Xu He, N.Helbig, N.Holzwarth, Y.Jia, F.Jollet,
- W.Lafargue-Dit-Hauret, K.Lejaeghere, M.A.L.Marques, A.Martin, C.Martins,
- H.P.C. Miranda, F.Naccarato, K. Persson, G.Petretto, V.Planes, Y.Pouillon,
- S.Prokhorenko, F.Ricci, G.-M.Rignanese, A.H.Romero, M.M.Schmitt, M.Torrent,
- M.J.van Setten, B.Van Troeye, M.J.Verstraete, G.Zerah and J.W.Zwanzig
- Comment: the fifth generic paper describing the ABINIT project.
- Note that a version of this paper, that is not formatted for Computer Phys. Comm. 
- is available at https://www.abinit.org/sites/default/files/ABINIT20.pdf .
- The licence allows the authors to put it on the Web.
- DOI and bibtex: see https://docs.abinit.org/theory/bibliography/#gonze2020
-
- [4] First-principles responses of solids to atomic displacements and homogeneous electric fields:,
- implementation of a conjugate-gradient algorithm. X. Gonze, Phys. Rev. B55, 10337 (1997).
- Comment: Non-vanishing rfphon and/or rfelfd, in the norm-conserving case.
- DOI and bibtex: see https://docs.abinit.org/theory/bibliography/#gonze1997
-
- [5] Dynamical matrices, Born effective charges, dielectric permittivity tensors, and ,
- interatomic force constants from density-functional perturbation theory,
- X. Gonze and C. Lee, Phys. Rev. B55, 10355 (1997).
- Comment: Non-vanishing rfphon and/or rfelfd, in the norm-conserving case.
- DOI and bibtex: see https://docs.abinit.org/theory/bibliography/#gonze1997a
-
- [6] Optimized norm-conserving Vanderbilt pseudopotentials.
- D.R. Hamann, Phys. Rev. B 88, 085117 (2013).
- Comment: Some pseudopotential generated using the ONCVPSP code were used.
- DOI and bibtex: see https://docs.abinit.org/theory/bibliography/#hamann2013
-
- [7] ABINIT: Overview, and focus on selected capabilities
- J. Chem. Phys. 152, 124102 (2020).
- A. Romero, D.C. Allan, B. Amadon, G. Antonius, T. Applencourt, L.Baguet,
- J.Bieder, F.Bottin, J.Bouchet, E.Bousquet, F.Bruneval,
- G.Brunin, D.Caliste, M.Cote,
- J.Denier, C. Dreyer, Ph.Ghosez, M.Giantomassi, Y.Gillet, O.Gingras,
- D.R.Hamann, G.Hautier, F.Jollet, G. Jomard,
- A.Martin, 
- H.P.C. Miranda, F.Naccarato, G.Petretto, N.A. Pike, V.Planes,
- S.Prokhorenko, T. Rangel, F.Ricci, G.-M.Rignanese, M.Royo, M.Stengel, M.Torrent,
- M.J.van Setten, B.Van Troeye, M.J.Verstraete, J.Wiktor, J.W.Zwanziger, and X.Gonze.
- Comment: a global overview of ABINIT, with focus on selected capabilities .
- Note that a version of this paper, that is not formatted for J. Chem. Phys 
- is available at https://www.abinit.org/sites/default/files/ABINIT20_JPC.pdf .
- The licence allows the authors to put it on the Web.
- DOI and bibtex: see https://docs.abinit.org/theory/bibliography/#romero2020
-
- [8] Recent developments in the ABINIT software package.
- Computer Phys. Comm. 205, 106 (2016).
- X.Gonze, F.Jollet, F.Abreu Araujo, D.Adams, B.Amadon, T.Applencourt,
- C.Audouze, J.-M.Beuken, J.Bieder, A.Bokhanchuk, E.Bousquet, F.Bruneval
- D.Caliste, M.Cote, F.Dahm, F.Da Pieve, M.Delaveau, M.Di Gennaro,
- B.Dorado, C.Espejo, G.Geneste, L.Genovese, A.Gerossier, M.Giantomassi,
- Y.Gillet, D.R.Hamann, L.He, G.Jomard, J.Laflamme Janssen, S.Le Roux,
- A.Levitt, A.Lherbier, F.Liu, I.Lukacevic, A.Martin, C.Martins,
- M.J.T.Oliveira, S.Ponce, Y.Pouillon, T.Rangel, G.-M.Rignanese,
- A.H.Romero, B.Rousseau, O.Rubel, A.A.Shukri, M.Stankovski, M.Torrent,
- M.J.Van Setten, B.Van Troeye, M.J.Verstraete, D.Waroquier, J.Wiktor,
- B.Xu, A.Zhou, J.W.Zwanziger.
- Comment: the fourth generic paper describing the ABINIT project.
- Note that a version of this paper, that is not formatted for Computer Phys. Comm. 
- is available at https://www.abinit.org/sites/default/files/ABINIT16.pdf .
- The licence allows the authors to put it on the Web.
- DOI and bibtex: see https://docs.abinit.org/theory/bibliography/#gonze2016
-
- Proc.   0 individual time (sec): cpu=         70.0  wall=         73.2
 
================================================================================
 
 Calculation completed.
.Delivered   2 WARNINGs and   5 COMMENTs to log file.
+Overall time at end (sec) : cpu=         70.0  wall=         73.2
