
.Version 9.5.1 of ABINIT 
.(MPI version, prepared for a x86_64_linux_intel19.1 computer) 

.Copyright (C) 1998-2021 ABINIT group . 
 ABINIT comes with ABSOLUTELY NO WARRANTY.
 It is free software, and you are welcome to redistribute it
 under certain conditions (GNU General Public License,
 see ~abinit/COPYING or http://www.gnu.org/copyleft/gpl.txt).

 ABINIT is a project of the Universite Catholique de Louvain,
 Corning Inc. and other collaborators, see ~abinit/doc/developers/contributors.txt .
 Please read https://docs.abinit.org/theory/acknowledgments for suggested
 acknowledgments of the ABINIT effort.
 For more information, see https://www.abinit.org .

.Starting date : Wed 19 May 2021.
- ( at 07h51 )
  
- input  file    -> /scratch/users/j/a/jabreu/flow_simple_9atoms/flow/w125/t1/run.abi
- output file    -> /scratch/users/j/a/jabreu/flow_simple_9atoms/flow/w125/t1/run.abo
- root for input  files -> /scratch/users/j/a/jabreu/flow_simple_9atoms/flow/w125/t1/indata/in
- root for output files -> /scratch/users/j/a/jabreu/flow_simple_9atoms/flow/w125/t1/outdata/out
 
 
 Symmetries : space group C2/m (# 12); Bravais mC (1-face-center monocl.)
================================================================================
 Values of the parameters that define the memory need of the present run (RF).
     intxc =       0      iscf =       7    lmnmax =      18     lnmax =       6
     mgfft =      80  mpssoang =       3    mqgrid =    3657     natom =       9
  nloc_mem =       1    nspden =       1   nspinor =       1    nsppol =       1
      nsym =       4    n1xccc =    2501    ntypat =       3    occopt =       1
   xclevel =       2
-    mband =          45        mffmem =           1         mkmem =           2
-   mkqmem =           2        mk1mem =           2           mpw =       13027
      nfft =      414720          nkpt =           2
================================================================================
P This job should need less than                     254.919 Mbytes of memory.
  Rough estimation (10% accuracy) of disk space for files :
_ WF disk file :     17.892 Mbytes ; DEN or POT disk file :      3.166 Mbytes.
================================================================================
 
--------------------------------------------------------------------------------
------------- Echo of variables that govern the present computation ------------
--------------------------------------------------------------------------------
-
- outvars: echo of selected default values                                      
-   iomode0 =  0 , fftalg0 =512 , wfoptalg0 =  0
-
- outvars: echo of global parameters not present in the input file              
-  max_nthreads =    0
-
 -outvars: echo values of preprocessed input variables --------
            acell      1.0000000000E+00  1.0000000000E+00  1.0000000000E+00 Bohr
              amu      3.90983000E+01  4.78800000E+01  1.59994000E+01
             ecut      4.40000000E+01 Hartree
-          fftalg         512
           irdden           1
           irdwfk           1
           istwfk        1    1
              ixc     -116133
              kpt      0.00000000E+00  0.00000000E+00  0.00000000E+00
                       0.00000000E+00  0.00000000E+00  5.00000000E-01
           kptopt           0
P           mkmem           2
P          mkqmem           2
P          mk1mem           2
            natom           9
            nband          45
           nbdbuf           4
            ngfft          72      72      80
             nkpt           2
            nstep        2000
             nsym           4
           ntypat           3
              occ      2.000000  2.000000  2.000000  2.000000  2.000000  2.000000
                       2.000000  2.000000  2.000000  2.000000  2.000000  2.000000
                       2.000000  2.000000  2.000000  2.000000  2.000000  2.000000
                       2.000000  2.000000  2.000000  2.000000  2.000000  2.000000
                       2.000000  2.000000  2.000000  2.000000  2.000000  2.000000
                       2.000000  2.000000  2.000000  2.000000  2.000000  2.000000
                       0.000000  0.000000  0.000000  0.000000  0.000000  0.000000
                       0.000000  0.000000  0.000000
        optdriver           1
            prtwf          -1
            rfdir           1       1       1
           rfelfd           2
            rprim      1.1151918157E+01  0.0000000000E+00  1.8299854620E+00
                       8.8853022478E+00  6.7391900505E+00  1.8299854620E+00
                       0.0000000000E+00  0.0000000000E+00  1.2428214603E+01
          spgroup          12
           symrel      1  0  0   0  1  0   0  0  1      -1  0  0   0 -1  0   0  0 -1
                       0 -1  0  -1  0  0   0  0 -1       0  1  0   1  0  0   0  0  1
           tolwfr      1.00000000E-20
            typat      1  1  2  2  3  3  3  3  3
           useylm           1
              wtk        0.50000    0.50000
           xangst      4.2748341939E+00  1.4377702838E+00  3.0785138392E+00
                       6.3284061676E+00  2.1284554953E+00  5.4349872692E+00
                       1.5648898320E+00  5.2632499783E-01  9.0002807524E-01
                       9.0383505295E+00  3.0399007812E+00  7.6134730331E+00
                       3.4207007698E+00  1.1504965324E+00  7.1176490576E+00
                       7.1825395917E+00  2.4157292467E+00  1.3958520507E+00
                       1.3290631631E+00  4.4700857028E-01  2.5922088085E+00
                       9.2741771984E+00  3.1192172088E+00  5.9212922999E+00
                       0.0000000000E+00  0.0000000000E+00  0.0000000000E+00
            xcart      8.0782658899E+00  2.7169920783E+00  5.8175480523E+00
                       1.1958954515E+01  4.0221979722E+00  1.0270637474E+01
                       2.9572132106E+00  9.9461010279E-01  1.7008065741E+00
                       1.7080007194E+01  5.7445799477E+00  1.4387378953E+01
                       6.4641876374E+00  2.1741233630E+00  1.3450407429E+01
                       1.3573032767E+01  4.5650666875E+00  2.6377780979E+00
                       2.5115653916E+00  8.4472377688E-01  4.8985647273E+00
                       1.7525655013E+01  5.8944662736E+00  1.1189620799E+01
                       0.0000000000E+00  0.0000000000E+00  0.0000000000E+00
             xred      4.0316300000E-01  4.0316300000E-01  3.4936500000E-01
                       5.9683700000E-01  5.9683700000E-01  6.5063500000E-01
                       1.4758600000E-01  1.4758600000E-01  9.3388000000E-02
                       8.5241400000E-01  8.5241400000E-01  9.0661200000E-01
                       3.2260900000E-01  3.2260900000E-01  9.8724300000E-01
                       6.7739100000E-01  6.7739100000E-01  1.2757000000E-02
                       1.2534500000E-01  1.2534500000E-01  3.5723600000E-01
                       8.7465500000E-01  8.7465500000E-01  6.4276400000E-01
                       0.0000000000E+00  0.0000000000E+00  0.0000000000E+00
            znucl       19.00000   22.00000    8.00000
 
================================================================================
 
 chkinp: Checking input parameters for consistency.
 
================================================================================
== DATASET  1 ==================================================================
-   mpi_nproc: 1, omp_nthreads: -1 (-1 if OMP is not activated)
 

--- !DatasetInfo
iteration_state: {dtset: 1, }
dimensions: {natom: 9, nkpt: 2, mband: 45, nsppol: 1, nspinor: 1, nspden: 1, mpw: 13027, }
cutoff_energies: {ecut:  44.0, pawecutdg:  -1.0, }
electrons: {nelect:   7.20000000E+01, charge:   0.00000000E+00, occopt:   1.00000000E+00, tsmear:   1.00000000E-02, }
meta: {optdriver: 1, rfelfd: 2, }
...

 Real(R)+Recip(G) space primitive vectors, cartesian coordinates (Bohr,Bohr^-1):
 R(1)= 11.1519182  0.0000000  1.8299855  G(1)=  0.0896707 -0.1182265  0.0000000
 R(2)=  8.8853022  6.7391901  1.8299855  G(2)=  0.0000000  0.1483858  0.0000000
 R(3)=  0.0000000  0.0000000 12.4282146  G(3)= -0.0132035 -0.0044408  0.0804621
 Unit cell volume ucvol=  9.3404117E+02 bohr^3
 Angles (23,13,12)=  8.06810433E+01  8.06810433E+01  3.66707622E+01 degrees
 
 getcut: wavevector=  0.0000  0.0000  0.0000  ngfft=  72  72  80
         ecut(hartree)=     44.000   => boxcut(ratio)=   2.13380
 
--- Pseudopotential description ------------------------------------------------
- pspini: atom type   1  psp file is /scratch/users/j/a/jabreu/pseudos/PBEsol/K.psp8
- pspatm: opening atomic psp file    /scratch/users/j/a/jabreu/pseudos/PBEsol/K.psp8
- K     ONCVPSP-3.3.0  r_core=   1.36296   1.46408   1.61068
- 19.00000   9.00000    180112                znucl, zion, pspdat
    8 -116133    2    4       400   0.00000   pspcod,pspxc,lmax,lloc,mmax,r2well
    3.99000000000000    5.00000000000000    0.00000000000000   rchrg,fchrg,qchrg
     nproj     2     2     2
     extension_switch     1
  pspatm : epsatm=    8.32487830
         --- l  ekb(1:nproj) -->
             0   10.921326    0.816676
             1    4.431000    0.560368
             2   -3.384038   -1.043186
 pspatm: atomic psp has been read  and splines computed
 
- pspini: atom type   2  psp file is /scratch/users/j/a/jabreu/pseudos/PBEsol/Ti.psp8
- pspatm: opening atomic psp file    /scratch/users/j/a/jabreu/pseudos/PBEsol/Ti.psp8
- Ti    ONCVPSP-3.3.0  r_core=   1.35825   1.31050   1.66360
- 22.00000  12.00000    180112                znucl, zion, pspdat
    8 -116133    2    4       600   0.00000   pspcod,pspxc,lmax,lloc,mmax,r2well
    5.99000000000000    2.50000000000000    0.00000000000000   rchrg,fchrg,qchrg
     nproj     2     2     2
     extension_switch     1
  pspatm : epsatm=   14.76919902
         --- l  ekb(1:nproj) -->
             0   11.321950    1.254474
             1    1.946894   -0.084268
             2   -5.237105   -1.488377
 pspatm: atomic psp has been read  and splines computed
 
- pspini: atom type   3  psp file is /scratch/users/j/a/jabreu/pseudos/PBEsol/O.psp8
- pspatm: opening atomic psp file    /scratch/users/j/a/jabreu/pseudos/PBEsol/O.psp8
- O     ONCVPSP-3.3.0  r_core=   1.35509   1.45563   1.26150
-  8.00000   6.00000    180112                znucl, zion, pspdat
    8 -116133    2    4       600   0.00000   pspcod,pspxc,lmax,lloc,mmax,r2well
    5.99000000000000    4.00000000000000    0.00000000000000   rchrg,fchrg,qchrg
     nproj     2     2     1
     extension_switch     1
  pspatm : epsatm=    6.22910522
         --- l  ekb(1:nproj) -->
             0    6.050032    0.820363
             1   -4.739617   -1.153841
             2   -1.335834
 pspatm: atomic psp has been read  and splines computed
 
   5.56802501E+03                                ecore*ucvol(ha*bohr**3)
--------------------------------------------------------------------------------
 
-inwffil : will read wavefunctions from disk file /scratch/users/j/a/jabreu/flow_simple_9atoms/flow/w125/t1/indata/in_WFK
 
 ==>  initialize data related to q vector <== 
 
 The list of irreducible perturbations for this q vector is:
    1)    idir= 1    ipert=  10
    2)    idir= 2    ipert=  10
    3)    idir= 3    ipert=  10
 
================================================================================
 
--------------------------------------------------------------------------------
 Perturbation wavevector (in red.coord.)   0.000000  0.000000  0.000000
 Perturbation : derivative vs k along direction   1
 
 dfpt_looppert : COMMENT -
  In a d/dk calculation, iscf is set to -3 automatically.
 The set of symmetries contains only one element for this perturbation.
 symkpt : not enough symmetry to change the number of k points.
 
--------------------------------------------------------------------------------
 
-inwffil : will read wavefunctions from disk file /scratch/users/j/a/jabreu/flow_simple_9atoms/flow/w125/t1/indata/in_WFK
--------------------------------------------------------------------------------
 
 Initialisation of the first-order wave-functions :
  ireadwf=   0

--- !BeginCycle
iteration_state: {dtset: 1, }
solver: {iscf: 7, nstep: 2000, nline: 4, wfoptalg: 0, }
tolerances: {tolwfr: 1.00E-20, }
...
 
     iter   2DEtotal(Ha)        deltaE(Ha) residm    vres2
-ETOT  1  -62.195817754340     -6.220E+01 2.171E-01 0.000E+00
 ETOT  2  -62.675806353023     -4.800E-01 2.188E-01 0.000E+00
 ETOT  3  -62.705114711850     -2.931E-02 6.478E-02 0.000E+00
 ETOT  4  -62.707392955848     -2.278E-03 6.480E-02 0.000E+00
 ETOT  5  -62.707589352379     -1.964E-04 1.914E-02 0.000E+00
 ETOT  6  -62.707607051288     -1.770E-05 1.974E-02 0.000E+00
 ETOT  7  -62.707608730813     -1.680E-06 5.937E-03 0.000E+00
 ETOT  8  -62.707608894761     -1.639E-07 6.555E-03 0.000E+00
 ETOT  9  -62.707608911383     -1.662E-08 1.954E-03 0.000E+00
 ETOT 10  -62.707608913118     -1.735E-09 2.270E-03 0.000E+00
 ETOT 11  -62.707608913306     -1.880E-10 6.591E-04 0.000E+00
 ETOT 12  -62.707608913327     -2.119E-11 7.896E-04 0.000E+00
 ETOT 13  -62.707608913329     -2.515E-12 2.246E-04 0.000E+00
 ETOT 14  -62.707608913330     -2.913E-13 2.746E-04 0.000E+00
 ETOT 15  -62.707608913330     -2.132E-14 7.700E-05 0.000E+00
 ETOT 16  -62.707608913330      5.684E-14 9.573E-05 0.000E+00
 ETOT 17  -62.707608913330      2.842E-14 2.654E-05 0.000E+00
 ETOT 18  -62.707608913330     -5.684E-14 3.345E-05 0.000E+00
 ETOT 19  -62.707608913330     -1.421E-14 1.269E-05 0.000E+00
 ETOT 20  -62.707608913330      0.000E+00 1.170E-05 0.000E+00
 ETOT 21  -62.707608913330      4.263E-14 6.211E-06 0.000E+00
 ETOT 22  -62.707608913330     -2.842E-14 4.603E-06 0.000E+00
 ETOT 23  -62.707608913330      1.421E-14 3.042E-06 0.000E+00
 ETOT 24  -62.707608913330      0.000E+00 2.259E-06 0.000E+00
 ETOT 25  -62.707608913330      0.000E+00 1.491E-06 0.000E+00
 ETOT 26  -62.707608913330      0.000E+00 1.109E-06 0.000E+00
 ETOT 27  -62.707608913330     -1.421E-14 7.318E-07 0.000E+00
 ETOT 28  -62.707608913330      1.421E-14 5.452E-07 0.000E+00
 ETOT 29  -62.707608913330     -4.263E-14 3.593E-07 0.000E+00
 ETOT 30  -62.707608913330      1.421E-14 2.681E-07 0.000E+00
 ETOT 31  -62.707608913330      0.000E+00 1.766E-07 0.000E+00
 ETOT 32  -62.707608913330     -1.421E-14 1.319E-07 0.000E+00
 ETOT 33  -62.707608913330      0.000E+00 8.681E-08 0.000E+00
 ETOT 34  -62.707608913330      2.132E-14 6.489E-08 0.000E+00
 ETOT 35  -62.707608913330     -7.105E-15 4.270E-08 0.000E+00
 ETOT 36  -62.707608913330      0.000E+00 3.195E-08 0.000E+00
 ETOT 37  -62.707608913330     -2.842E-14 2.102E-08 0.000E+00
 ETOT 38  -62.707608913330      2.842E-14 1.573E-08 0.000E+00
 ETOT 39  -62.707608913330      0.000E+00 1.035E-08 0.000E+00
 ETOT 40  -62.707608913330      0.000E+00 7.748E-09 0.000E+00
 ETOT 41  -62.707608913330      2.842E-14 5.100E-09 0.000E+00
 ETOT 42  -62.707608913330      0.000E+00 3.818E-09 0.000E+00
 ETOT 43  -62.707608913330      0.000E+00 2.514E-09 0.000E+00
 ETOT 44  -62.707608913330      0.000E+00 1.882E-09 0.000E+00
 ETOT 45  -62.707608913330      0.000E+00 1.240E-09 0.000E+00
 ETOT 46  -62.707608913330      0.000E+00 9.276E-10 0.000E+00
 ETOT 47  -62.707608913330     -1.421E-14 6.118E-10 0.000E+00
 ETOT 48  -62.707608913330      0.000E+00 4.574E-10 0.000E+00
 ETOT 49  -62.707608913330      7.105E-15 3.020E-10 0.000E+00
 ETOT 50  -62.707608913330     -7.105E-15 2.256E-10 0.000E+00
 ETOT 51  -62.707608913330      0.000E+00 1.491E-10 0.000E+00
 ETOT 52  -62.707608913330      1.421E-14 1.113E-10 0.000E+00
 ETOT 53  -62.707608913330      7.105E-15 7.366E-11 0.000E+00
 ETOT 54  -62.707608913330     -1.421E-14 5.495E-11 0.000E+00
 ETOT 55  -62.707608913330     -7.105E-15 3.640E-11 0.000E+00
 ETOT 56  -62.707608913330      0.000E+00 2.713E-11 0.000E+00
 ETOT 57  -62.707608913330      7.105E-15 1.799E-11 0.000E+00
 ETOT 58  -62.707608913330      1.421E-14 1.339E-11 0.000E+00
 ETOT 59  -62.707608913330     -2.132E-14 8.895E-12 0.000E+00
 ETOT 60  -62.707608913330      2.132E-14 6.616E-12 0.000E+00
 ETOT 61  -62.707608913330     -7.105E-15 4.399E-12 0.000E+00
 ETOT 62  -62.707608913330      0.000E+00 3.269E-12 0.000E+00
 ETOT 63  -62.707608913330     -2.842E-14 2.176E-12 0.000E+00
 ETOT 64  -62.707608913330      2.842E-14 1.615E-12 0.000E+00
 ETOT 65  -62.707608913330     -2.842E-14 1.077E-12 0.000E+00
 ETOT 66  -62.707608913330      2.842E-14 7.983E-13 0.000E+00
 ETOT 67  -62.707608913330      0.000E+00 5.329E-13 0.000E+00
 ETOT 68  -62.707608913330     -2.842E-14 3.947E-13 0.000E+00
 ETOT 69  -62.707608913330     -2.842E-14 2.638E-13 0.000E+00
 ETOT 70  -62.707608913330      4.263E-14 1.952E-13 0.000E+00
 ETOT 71  -62.707608913330      2.842E-14 1.306E-13 0.000E+00
 ETOT 72  -62.707608913330     -4.263E-14 9.651E-14 0.000E+00
 ETOT 73  -62.707608913330      0.000E+00 6.465E-14 0.000E+00
 ETOT 74  -62.707608913330      0.000E+00 4.774E-14 0.000E+00
 ETOT 75  -62.707608913330     -2.842E-14 3.201E-14 0.000E+00
 ETOT 76  -62.707608913330      7.105E-15 2.362E-14 0.000E+00
 ETOT 77  -62.707608913330     -7.105E-15 1.585E-14 0.000E+00
 ETOT 78  -62.707608913330      2.842E-14 1.169E-14 0.000E+00
 ETOT 79  -62.707608913330      7.105E-15 7.852E-15 0.000E+00
 ETOT 80  -62.707608913330     -7.105E-15 5.783E-15 0.000E+00
 ETOT 81  -62.707608913330      0.000E+00 3.889E-15 0.000E+00
 ETOT 82  -62.707608913330      0.000E+00 2.862E-15 0.000E+00
 ETOT 83  -62.707608913330     -2.842E-14 1.927E-15 0.000E+00
 ETOT 84  -62.707608913330      2.842E-14 1.417E-15 0.000E+00
 ETOT 85  -62.707608913330     -2.842E-14 9.544E-16 0.000E+00
 ETOT 86  -62.707608913330      2.842E-14 7.012E-16 0.000E+00
 ETOT 87  -62.707608913330      0.000E+00 4.728E-16 0.000E+00
 ETOT 88  -62.707608913330      0.000E+00 3.472E-16 0.000E+00
 ETOT 89  -62.707608913330      0.000E+00 2.343E-16 0.000E+00
 ETOT 90  -62.707608913330      0.000E+00 1.719E-16 0.000E+00
 ETOT 91  -62.707608913330      7.105E-15 1.161E-16 0.000E+00
 ETOT 92  -62.707608913330      7.105E-15 8.511E-17 0.000E+00
 ETOT 93  -62.707608913330     -1.421E-14 5.751E-17 0.000E+00
 ETOT 94  -62.707608913330      7.105E-15 4.215E-17 0.000E+00
 ETOT 95  -62.707608913330      0.000E+00 2.849E-17 0.000E+00
 ETOT 96  -62.707608913330      7.105E-15 2.087E-17 0.000E+00
 ETOT 97  -62.707608913330      0.000E+00 1.412E-17 0.000E+00
 ETOT 98  -62.707608913330      0.000E+00 1.034E-17 0.000E+00
 ETOT 99  -62.707608913330      0.000E+00 6.996E-18 0.000E+00
 ETOT  100  -62.707608913330     -2.132E-14 5.120E-18 0.000E+00
 ETOT  101  -62.707608913330     -7.105E-15 3.467E-18 0.000E+00
 ETOT  102  -62.707608913330      5.684E-14 2.536E-18 0.000E+00
 ETOT  103  -62.707608913330     -5.684E-14 1.718E-18 0.000E+00
 ETOT  104  -62.707608913330      2.842E-14 1.256E-18 0.000E+00
 ETOT  105  -62.707608913330      0.000E+00 8.513E-19 0.000E+00
 ETOT  106  -62.707608913330      0.000E+00 6.222E-19 0.000E+00
 ETOT  107  -62.707608913330      2.842E-14 4.219E-19 0.000E+00
 ETOT  108  -62.707608913330     -2.842E-14 3.082E-19 0.000E+00
 ETOT  109  -62.707608913330      0.000E+00 2.091E-19 0.000E+00
 ETOT  110  -62.707608913330      0.000E+00 1.527E-19 0.000E+00
 ETOT  111  -62.707608913330     -7.105E-15 1.036E-19 0.000E+00
 ETOT  112  -62.707608913330      7.105E-15 7.565E-20 0.000E+00
 ETOT  113  -62.707608913330      0.000E+00 5.135E-20 0.000E+00
 ETOT  114  -62.707608913330     -1.421E-14 3.748E-20 0.000E+00
 ETOT  115  -62.707608913330      0.000E+00 2.545E-20 0.000E+00
 ETOT  116  -62.707608913330      1.421E-14 1.857E-20 0.000E+00
 ETOT  117  -62.707608913330     -1.421E-14 1.261E-20 0.000E+00
 ETOT  118  -62.707608913330      1.421E-14 9.921E-21 0.000E+00
 
 At SCF step  118   max residual=  9.92E-21 < tolwfr=  1.00E-20 =>converged.
================================================================================
 
 ----iterations are completed or convergence reached----
 
 dfpt_looppert: DFPT cycle converged with prtwf=-1. Will skip output of the 1st-order WFK file.
 dfpt_looppert : ek2=    1.2517189318E+02
          f-sum rule ratio=    1.0664707482E+00
 prteigrs : about to open file /scratch/users/j/a/jabreu/flow_simple_9atoms/flow/w125/t1/tmpdata/tmp_1WF1_EIG
 Expectation of eigenvalue derivatives (hartree) for nkpt=   2  k points:
  (in case of degenerate eigenvalues, averaged derivative)
 kpt#   1, nband= 45, wtk=  0.50000, kpt=  0.0000  0.0000  0.0000 (reduced coord)
  -0.00000   -0.00000   -0.00000    0.00000   -0.00000   -0.00000    0.00000   -0.00000
  -0.00000   -0.00000    0.00000    0.00000    0.00000    0.00000    0.00000    0.00000
   0.00000   -0.00000    0.00000    0.00000    0.00000    0.00000    0.00000   -0.00000
  -0.00000   -0.00000   -0.00000    0.00000   -0.00000    0.00000    0.00000    0.00000
  -0.00000   -0.00000    0.00000    0.00000    0.00000    0.00000    0.00000    0.00000
  -0.00000    0.00000    0.00000   -0.00000    0.00000
 prteigrs : prtvol=0 or 1, do not print more k-points.
 
 
 Eight components of 2nd-order total energy (hartree) are
 1,2,3: 0th-order hamiltonian combined with 1st-order wavefunctions
     kin0=   1.20048296E+02 eigvalue=   4.39786741E+00  local=  -6.48977733E+01
 4,5,6: 1st-order hamiltonian combined with 1st and 0th-order wfs
     kin1=  -1.33492163E+02  Hartree=   0.00000000E+00     xc=   0.00000000E+00
 7,8,9: eventually, occupation + non-local contributions
    edocc=   1.06925910E+01     enl0=  -7.53337202E+00   enl1=   8.07694475E+00
 1-9 gives the relaxation energy (to be shifted if some occ is /=2.0)
   erelax=  -6.27076089E+01
  No Ewald or frozen-wf contrib.: the relaxation energy is the total one
 2DEtotal=   -0.6270760891E+02 Ha. Also 2DEtotal=   -0.170636081708E+04 eV
    (  non-var. 2DEtotal :   -6.2707608913E+01 Ha)
 
--------------------------------------------------------------------------------
 Perturbation wavevector (in red.coord.)   0.000000  0.000000  0.000000
 Perturbation : derivative vs k along direction   2
 The set of symmetries contains only one element for this perturbation.
 symkpt : not enough symmetry to change the number of k points.
 
--------------------------------------------------------------------------------
 
-inwffil : will read wavefunctions from disk file /scratch/users/j/a/jabreu/flow_simple_9atoms/flow/w125/t1/indata/in_WFK
--------------------------------------------------------------------------------
 
 Initialisation of the first-order wave-functions :
  ireadwf=   0

--- !BeginCycle
iteration_state: {dtset: 1, }
solver: {iscf: 7, nstep: 2000, nline: 4, wfoptalg: 0, }
tolerances: {tolwfr: 1.00E-20, }
...
 
     iter   2DEtotal(Ha)        deltaE(Ha) residm    vres2
-ETOT  1  -62.195818269479     -6.220E+01 2.171E-01 0.000E+00
 ETOT  2  -62.675806837426     -4.800E-01 2.188E-01 0.000E+00
 ETOT  3  -62.705115194560     -2.931E-02 6.478E-02 0.000E+00
 ETOT  4  -62.707393438473     -2.278E-03 6.480E-02 0.000E+00
 ETOT  5  -62.707589835000     -1.964E-04 1.914E-02 0.000E+00
 ETOT  6  -62.707607533909     -1.770E-05 1.974E-02 0.000E+00
 ETOT  7  -62.707609213434     -1.680E-06 5.937E-03 0.000E+00
 ETOT  8  -62.707609377382     -1.639E-07 6.555E-03 0.000E+00
 ETOT  9  -62.707609394003     -1.662E-08 1.954E-03 0.000E+00
 ETOT 10  -62.707609395738     -1.735E-09 2.270E-03 0.000E+00
 ETOT 11  -62.707609395926     -1.882E-10 6.591E-04 0.000E+00
 ETOT 12  -62.707609395948     -2.106E-11 7.896E-04 0.000E+00
 ETOT 13  -62.707609395950     -2.572E-12 2.246E-04 0.000E+00
 ETOT 14  -62.707609395950     -3.055E-13 2.746E-04 0.000E+00
 ETOT 15  -62.707609395950      7.105E-15 7.700E-05 0.000E+00
 ETOT 16  -62.707609395950      7.105E-15 9.573E-05 0.000E+00
 ETOT 17  -62.707609395950     -4.263E-14 2.654E-05 0.000E+00
 ETOT 18  -62.707609395950      7.105E-15 3.345E-05 0.000E+00
 ETOT 19  -62.707609395950      5.684E-14 1.269E-05 0.000E+00
 ETOT 20  -62.707609395950     -4.263E-14 1.170E-05 0.000E+00
 ETOT 21  -62.707609395950      5.684E-14 6.211E-06 0.000E+00
 ETOT 22  -62.707609395950     -2.132E-14 4.603E-06 0.000E+00
 ETOT 23  -62.707609395950      7.105E-15 3.042E-06 0.000E+00
 ETOT 24  -62.707609395950      2.842E-14 2.259E-06 0.000E+00
 ETOT 25  -62.707609395950     -7.105E-15 1.491E-06 0.000E+00
 ETOT 26  -62.707609395950     -2.132E-14 1.109E-06 0.000E+00
 ETOT 27  -62.707609395950      0.000E+00 7.318E-07 0.000E+00
 ETOT 28  -62.707609395950     -7.105E-15 5.452E-07 0.000E+00
 ETOT 29  -62.707609395950      7.105E-15 3.593E-07 0.000E+00
 ETOT 30  -62.707609395950     -2.842E-14 2.681E-07 0.000E+00
 ETOT 31  -62.707609395950      0.000E+00 1.766E-07 0.000E+00
 ETOT 32  -62.707609395950      5.684E-14 1.319E-07 0.000E+00
 ETOT 33  -62.707609395950     -2.842E-14 8.681E-08 0.000E+00
 ETOT 34  -62.707609395950      0.000E+00 6.489E-08 0.000E+00
 ETOT 35  -62.707609395950      0.000E+00 4.270E-08 0.000E+00
 ETOT 36  -62.707609395950      0.000E+00 3.195E-08 0.000E+00
 ETOT 37  -62.707609395950      0.000E+00 2.102E-08 0.000E+00
 ETOT 38  -62.707609395950      2.842E-14 1.573E-08 0.000E+00
 ETOT 39  -62.707609395950     -4.263E-14 1.035E-08 0.000E+00
 ETOT 40  -62.707609395950      0.000E+00 7.748E-09 0.000E+00
 ETOT 41  -62.707609395950      0.000E+00 5.100E-09 0.000E+00
 ETOT 42  -62.707609395950      0.000E+00 3.818E-09 0.000E+00
 ETOT 43  -62.707609395950      0.000E+00 2.514E-09 0.000E+00
 ETOT 44  -62.707609395950      0.000E+00 1.882E-09 0.000E+00
 ETOT 45  -62.707609395950      1.421E-14 1.240E-09 0.000E+00
 ETOT 46  -62.707609395950      0.000E+00 9.276E-10 0.000E+00
 ETOT 47  -62.707609395950     -2.842E-14 6.118E-10 0.000E+00
 ETOT 48  -62.707609395950      0.000E+00 4.574E-10 0.000E+00
 ETOT 49  -62.707609395950      1.421E-14 3.020E-10 0.000E+00
 ETOT 50  -62.707609395950      7.105E-15 2.256E-10 0.000E+00
 ETOT 51  -62.707609395950     -1.421E-14 1.491E-10 0.000E+00
 ETOT 52  -62.707609395950      1.421E-14 1.113E-10 0.000E+00
 ETOT 53  -62.707609395950     -2.132E-14 7.366E-11 0.000E+00
 ETOT 54  -62.707609395950      2.842E-14 5.495E-11 0.000E+00
 ETOT 55  -62.707609395950     -2.842E-14 3.640E-11 0.000E+00
 ETOT 56  -62.707609395950      0.000E+00 2.713E-11 0.000E+00
 ETOT 57  -62.707609395950      3.553E-14 1.799E-11 0.000E+00
 ETOT 58  -62.707609395950     -3.553E-14 1.339E-11 0.000E+00
 ETOT 59  -62.707609395950      0.000E+00 8.895E-12 0.000E+00
 ETOT 60  -62.707609395950      2.842E-14 6.616E-12 0.000E+00
 ETOT 61  -62.707609395950      0.000E+00 4.399E-12 0.000E+00
 ETOT 62  -62.707609395950      0.000E+00 3.269E-12 0.000E+00
 ETOT 63  -62.707609395950      0.000E+00 2.176E-12 0.000E+00
 ETOT 64  -62.707609395950      0.000E+00 1.615E-12 0.000E+00
 ETOT 65  -62.707609395950      7.105E-15 1.077E-12 0.000E+00
 ETOT 66  -62.707609395950      2.132E-14 7.983E-13 0.000E+00
 ETOT 67  -62.707609395950     -2.842E-14 5.329E-13 0.000E+00
 ETOT 68  -62.707609395950      7.105E-15 3.947E-13 0.000E+00
 ETOT 69  -62.707609395950     -7.105E-15 2.638E-13 0.000E+00
 ETOT 70  -62.707609395950      0.000E+00 1.952E-13 0.000E+00
 ETOT 71  -62.707609395950      2.842E-14 1.306E-13 0.000E+00
 ETOT 72  -62.707609395950      0.000E+00 9.651E-14 0.000E+00
 ETOT 73  -62.707609395950      0.000E+00 6.465E-14 0.000E+00
 ETOT 74  -62.707609395950      0.000E+00 4.774E-14 0.000E+00
 ETOT 75  -62.707609395950     -2.842E-14 3.201E-14 0.000E+00
 ETOT 76  -62.707609395950      2.842E-14 2.362E-14 0.000E+00
 ETOT 77  -62.707609395950     -1.421E-14 1.585E-14 0.000E+00
 ETOT 78  -62.707609395950      0.000E+00 1.169E-14 0.000E+00
 ETOT 79  -62.707609395950      0.000E+00 7.852E-15 0.000E+00
 ETOT 80  -62.707609395950     -2.842E-14 5.783E-15 0.000E+00
 ETOT 81  -62.707609395950      2.842E-14 3.889E-15 0.000E+00
 ETOT 82  -62.707609395950      0.000E+00 2.862E-15 0.000E+00
 ETOT 83  -62.707609395950      0.000E+00 1.927E-15 0.000E+00
 ETOT 84  -62.707609395950     -2.842E-14 1.417E-15 0.000E+00
 ETOT 85  -62.707609395950      0.000E+00 9.544E-16 0.000E+00
 ETOT 86  -62.707609395950      2.842E-14 7.012E-16 0.000E+00
 ETOT 87  -62.707609395950      0.000E+00 4.728E-16 0.000E+00
 ETOT 88  -62.707609395950      0.000E+00 3.472E-16 0.000E+00
 ETOT 89  -62.707609395950      0.000E+00 2.343E-16 0.000E+00
 ETOT 90  -62.707609395950      0.000E+00 1.719E-16 0.000E+00
 ETOT 91  -62.707609395950      0.000E+00 1.161E-16 0.000E+00
 ETOT 92  -62.707609395950     -1.421E-14 8.511E-17 0.000E+00
 ETOT 93  -62.707609395950      4.263E-14 5.751E-17 0.000E+00
 ETOT 94  -62.707609395950     -2.842E-14 4.215E-17 0.000E+00
 ETOT 95  -62.707609395950      0.000E+00 2.849E-17 0.000E+00
 ETOT 96  -62.707609395950     -7.105E-15 2.087E-17 0.000E+00
 ETOT 97  -62.707609395950     -7.105E-15 1.412E-17 0.000E+00
 ETOT 98  -62.707609395950     -1.421E-14 1.034E-17 0.000E+00
 ETOT 99  -62.707609395950      7.105E-15 6.996E-18 0.000E+00
 ETOT  100  -62.707609395950     -2.132E-14 5.120E-18 0.000E+00
 ETOT  101  -62.707609395950      0.000E+00 3.467E-18 0.000E+00
 ETOT  102  -62.707609395950      2.132E-14 2.536E-18 0.000E+00
 ETOT  103  -62.707609395950      0.000E+00 1.718E-18 0.000E+00
 ETOT  104  -62.707609395950      7.105E-15 1.256E-18 0.000E+00
 ETOT  105  -62.707609395950     -2.842E-14 8.513E-19 0.000E+00
 ETOT  106  -62.707609395950      2.842E-14 6.222E-19 0.000E+00
 ETOT  107  -62.707609395950      0.000E+00 4.219E-19 0.000E+00
 ETOT  108  -62.707609395950      0.000E+00 3.082E-19 0.000E+00
 ETOT  109  -62.707609395950     -6.395E-14 2.091E-19 0.000E+00
 ETOT  110  -62.707609395950      4.974E-14 1.527E-19 0.000E+00
 ETOT  111  -62.707609395950      1.421E-14 1.036E-19 0.000E+00
 ETOT  112  -62.707609395950      1.421E-14 7.565E-20 0.000E+00
 ETOT  113  -62.707609395950     -1.421E-14 5.135E-20 0.000E+00
 ETOT  114  -62.707609395950     -1.421E-14 3.748E-20 0.000E+00
 ETOT  115  -62.707609395950      4.263E-14 2.545E-20 0.000E+00
 ETOT  116  -62.707609395950     -5.684E-14 1.857E-20 0.000E+00
 ETOT  117  -62.707609395950      0.000E+00 1.261E-20 0.000E+00
 ETOT  118  -62.707609395950      5.684E-14 9.920E-21 0.000E+00
 
 At SCF step  118   max residual=  9.92E-21 < tolwfr=  1.00E-20 =>converged.
================================================================================
 
 ----iterations are completed or convergence reached----
 
 dfpt_looppert: DFPT cycle converged with prtwf=-1. Will skip output of the 1st-order WFK file.
 dfpt_looppert : ek2=    1.2517189318E+02
          f-sum rule ratio=    1.0664707601E+00
 prteigrs : about to open file /scratch/users/j/a/jabreu/flow_simple_9atoms/flow/w125/t1/tmpdata/tmp_1WF1_EIG
 Expectation of eigenvalue derivatives (hartree) for nkpt=   2  k points:
  (in case of degenerate eigenvalues, averaged derivative)
 kpt#   1, nband= 45, wtk=  0.50000, kpt=  0.0000  0.0000  0.0000 (reduced coord)
  -0.00000    0.00000   -0.00000   -0.00000   -0.00000    0.00000    0.00000    0.00000
  -0.00000   -0.00000    0.00000    0.00000   -0.00000   -0.00000   -0.00000    0.00000
   0.00000    0.00000   -0.00000    0.00000    0.00000   -0.00000   -0.00000    0.00000
  -0.00000   -0.00000    0.00000   -0.00000    0.00000   -0.00000   -0.00000   -0.00000
   0.00000   -0.00000   -0.00000    0.00000   -0.00000    0.00000   -0.00000    0.00000
   0.00000    0.00000   -0.00000    0.00000    0.00000
 prteigrs : prtvol=0 or 1, do not print more k-points.
 
 
 Eight components of 2nd-order total energy (hartree) are
 1,2,3: 0th-order hamiltonian combined with 1st-order wavefunctions
     kin0=   1.20048292E+02 eigvalue=   4.39786737E+00  local=  -6.48977706E+01
 4,5,6: 1st-order hamiltonian combined with 1st and 0th-order wfs
     kin1=  -1.33492164E+02  Hartree=   0.00000000E+00     xc=   0.00000000E+00
 7,8,9: eventually, occupation + non-local contributions
    edocc=   1.06925919E+01     enl0=  -7.53337139E+00   enl1=   8.07694527E+00
 1-9 gives the relaxation energy (to be shifted if some occ is /=2.0)
   erelax=  -6.27076094E+01
  No Ewald or frozen-wf contrib.: the relaxation energy is the total one
 2DEtotal=   -0.6270760940E+02 Ha. Also 2DEtotal=   -0.170636083022E+04 eV
    (  non-var. 2DEtotal :   -6.2707609395E+01 Ha)
 
--------------------------------------------------------------------------------
 Perturbation wavevector (in red.coord.)   0.000000  0.000000  0.000000
 Perturbation : derivative vs k along direction   3
 The set of symmetries contains only one element for this perturbation.
 symkpt : not enough symmetry to change the number of k points.
 
--------------------------------------------------------------------------------
 
-inwffil : will read wavefunctions from disk file /scratch/users/j/a/jabreu/flow_simple_9atoms/flow/w125/t1/indata/in_WFK
--------------------------------------------------------------------------------
 
 Initialisation of the first-order wave-functions :
  ireadwf=   0

--- !BeginCycle
iteration_state: {dtset: 1, }
solver: {iscf: 7, nstep: 2000, nline: 4, wfoptalg: 0, }
tolerances: {tolwfr: 1.00E-20, }
...
 
     iter   2DEtotal(Ha)        deltaE(Ha) residm    vres2
-ETOT  1  -17.889979871740     -1.789E+01 5.981E-02 0.000E+00
 ETOT  2  -17.999072514626     -1.091E-01 8.505E-03 0.000E+00
 ETOT  3  -18.004164190362     -5.092E-03 1.479E-03 0.000E+00
 ETOT  4  -18.004494175650     -3.300E-04 1.299E-03 0.000E+00
 ETOT  5  -18.004518866591     -2.469E-05 4.865E-04 0.000E+00
 ETOT  6  -18.004520817821     -1.951E-06 4.773E-04 0.000E+00
 ETOT  7  -18.004520979402     -1.616E-07 1.797E-04 0.000E+00
 ETOT  8  -18.004520993174     -1.377E-08 1.864E-04 0.000E+00
 ETOT  9  -18.004520994379     -1.205E-09 6.956E-05 0.000E+00
 ETOT 10  -18.004520994487     -1.075E-10 7.384E-05 0.000E+00
 ETOT 11  -18.004520994497     -9.805E-12 2.742E-05 0.000E+00
 ETOT 12  -18.004520994498     -8.740E-13 2.935E-05 0.000E+00
 ETOT 13  -18.004520994498     -8.171E-14 1.091E-05 0.000E+00
 ETOT 14  -18.004520994498     -3.553E-14 1.169E-05 0.000E+00
 ETOT 15  -18.004520994498      1.066E-14 4.362E-06 0.000E+00
 ETOT 16  -18.004520994498     -1.066E-14 4.669E-06 0.000E+00
 ETOT 17  -18.004520994498      7.105E-15 1.751E-06 0.000E+00
 ETOT 18  -18.004520994498      1.776E-14 1.869E-06 0.000E+00
 ETOT 19  -18.004520994498     -1.066E-14 7.045E-07 0.000E+00
 ETOT 20  -18.004520994498     -7.105E-15 7.497E-07 0.000E+00
 ETOT 21  -18.004520994498      2.132E-14 2.841E-07 0.000E+00
 ETOT 22  -18.004520994498     -1.421E-14 3.014E-07 0.000E+00
 ETOT 23  -18.004520994498      1.066E-14 1.147E-07 0.000E+00
 ETOT 24  -18.004520994498     -1.066E-14 1.214E-07 0.000E+00
 ETOT 25  -18.004520994498      3.553E-15 4.639E-08 0.000E+00
 ETOT 26  -18.004520994498      3.553E-15 4.898E-08 0.000E+00
 ETOT 27  -18.004520994498      0.000E+00 1.877E-08 0.000E+00
 ETOT 28  -18.004520994498      3.553E-15 1.979E-08 0.000E+00
 ETOT 29  -18.004520994498     -1.066E-14 8.379E-09 0.000E+00
 ETOT 30  -18.004520994498      0.000E+00 8.004E-09 0.000E+00
 ETOT 31  -18.004520994498      0.000E+00 4.142E-09 0.000E+00
 ETOT 32  -18.004520994498      0.000E+00 3.240E-09 0.000E+00
 ETOT 33  -18.004520994498      0.000E+00 2.049E-09 0.000E+00
 ETOT 34  -18.004520994498      0.000E+00 1.454E-09 0.000E+00
 ETOT 35  -18.004520994498      0.000E+00 1.014E-09 0.000E+00
 ETOT 36  -18.004520994498      0.000E+00 7.161E-10 0.000E+00
 ETOT 37  -18.004520994498      0.000E+00 5.016E-10 0.000E+00
 ETOT 38  -18.004520994498     -3.553E-15 3.530E-10 0.000E+00
 ETOT 39  -18.004520994498      3.553E-15 2.483E-10 0.000E+00
 ETOT 40  -18.004520994498      0.000E+00 1.741E-10 0.000E+00
 ETOT 41  -18.004520994498      0.000E+00 1.229E-10 0.000E+00
 ETOT 42  -18.004520994498     -3.553E-15 8.594E-11 0.000E+00
 ETOT 43  -18.004520994498      3.553E-15 6.082E-11 0.000E+00
 ETOT 44  -18.004520994498      0.000E+00 4.243E-11 0.000E+00
 ETOT 45  -18.004520994498      0.000E+00 3.010E-11 0.000E+00
 ETOT 46  -18.004520994498     -3.553E-15 2.095E-11 0.000E+00
 ETOT 47  -18.004520994498      3.553E-15 1.490E-11 0.000E+00
 ETOT 48  -18.004520994498      0.000E+00 1.035E-11 0.000E+00
 ETOT 49  -18.004520994498      0.000E+00 7.373E-12 0.000E+00
 ETOT 50  -18.004520994498      0.000E+00 5.116E-12 0.000E+00
 ETOT 51  -18.004520994498      0.000E+00 3.649E-12 0.000E+00
 ETOT 52  -18.004520994498      0.000E+00 2.529E-12 0.000E+00
 ETOT 53  -18.004520994498      0.000E+00 1.806E-12 0.000E+00
 ETOT 54  -18.004520994498      0.000E+00 1.250E-12 0.000E+00
 ETOT 55  -18.004520994498      0.000E+00 8.938E-13 0.000E+00
 ETOT 56  -18.004520994498      0.000E+00 6.183E-13 0.000E+00
 ETOT 57  -18.004520994498      0.000E+00 4.424E-13 0.000E+00
 ETOT 58  -18.004520994498      0.000E+00 3.059E-13 0.000E+00
 ETOT 59  -18.004520994498     -3.553E-15 2.189E-13 0.000E+00
 ETOT 60  -18.004520994498      0.000E+00 1.514E-13 0.000E+00
 ETOT 61  -18.004520994498      3.553E-15 1.084E-13 0.000E+00
 ETOT 62  -18.004520994498     -3.553E-15 7.491E-14 0.000E+00
 ETOT 63  -18.004520994498      3.553E-15 5.365E-14 0.000E+00
 ETOT 64  -18.004520994498     -3.553E-15 3.709E-14 0.000E+00
 ETOT 65  -18.004520994498      0.000E+00 2.656E-14 0.000E+00
 ETOT 66  -18.004520994498      1.066E-14 1.836E-14 0.000E+00
 ETOT 67  -18.004520994498     -7.105E-15 1.315E-14 0.000E+00
 ETOT 68  -18.004520994498      0.000E+00 9.096E-15 0.000E+00
 ETOT 69  -18.004520994498      0.000E+00 6.512E-15 0.000E+00
 ETOT 70  -18.004520994498      7.105E-15 4.506E-15 0.000E+00
 ETOT 71  -18.004520994498     -7.105E-15 3.225E-15 0.000E+00
 ETOT 72  -18.004520994498      0.000E+00 2.233E-15 0.000E+00
 ETOT 73  -18.004520994498      0.000E+00 1.598E-15 0.000E+00
 ETOT 74  -18.004520994498      0.000E+00 1.107E-15 0.000E+00
 ETOT 75  -18.004520994498     -3.553E-15 7.915E-16 0.000E+00
 ETOT 76  -18.004520994498      3.553E-15 5.485E-16 0.000E+00
 ETOT 77  -18.004520994498      3.553E-15 3.922E-16 0.000E+00
 ETOT 78  -18.004520994498      3.553E-15 2.720E-16 0.000E+00
 ETOT 79  -18.004520994498     -3.553E-15 1.943E-16 0.000E+00
 ETOT 80  -18.004520994498      0.000E+00 1.349E-16 0.000E+00
 ETOT 81  -18.004520994498      1.066E-14 9.632E-17 0.000E+00
 ETOT 82  -18.004520994498     -3.553E-15 6.688E-17 0.000E+00
 ETOT 83  -18.004520994498      3.553E-15 4.775E-17 0.000E+00
 ETOT 84  -18.004520994498     -7.105E-15 3.317E-17 0.000E+00
 ETOT 85  -18.004520994498      1.066E-14 2.367E-17 0.000E+00
 ETOT 86  -18.004520994498     -7.105E-15 1.645E-17 0.000E+00
 ETOT 87  -18.004520994498      0.000E+00 1.174E-17 0.000E+00
 ETOT 88  -18.004520994498      7.105E-15 8.164E-18 0.000E+00
 ETOT 89  -18.004520994498     -7.105E-15 5.820E-18 0.000E+00
 ETOT 90  -18.004520994498     -7.105E-15 4.051E-18 0.000E+00
 ETOT 91  -18.004520994498      1.066E-14 2.886E-18 0.000E+00
 ETOT 92  -18.004520994498     -3.553E-15 2.010E-18 0.000E+00
 ETOT 93  -18.004520994498      0.000E+00 1.432E-18 0.000E+00
 ETOT 94  -18.004520994498      0.000E+00 9.975E-19 0.000E+00
 ETOT 95  -18.004520994498     -3.553E-15 7.101E-19 0.000E+00
 ETOT 96  -18.004520994498      3.553E-15 4.951E-19 0.000E+00
 ETOT 97  -18.004520994498     -3.553E-15 3.523E-19 0.000E+00
 ETOT 98  -18.004520994498      0.000E+00 2.457E-19 0.000E+00
 ETOT 99  -18.004520994498     -3.553E-15 1.748E-19 0.000E+00
 ETOT  100  -18.004520994498      3.553E-15 1.220E-19 0.000E+00
 ETOT  101  -18.004520994498      0.000E+00 8.672E-20 0.000E+00
 ETOT  102  -18.004520994498      0.000E+00 6.054E-20 0.000E+00
 ETOT  103  -18.004520994498     -3.553E-15 4.303E-20 0.000E+00
 ETOT  104  -18.004520994498      3.553E-15 3.005E-20 0.000E+00
 ETOT  105  -18.004520994498      0.000E+00 2.135E-20 0.000E+00
 ETOT  106  -18.004520994498      3.553E-15 1.492E-20 0.000E+00
 ETOT  107  -18.004520994498     -1.066E-14 1.060E-20 0.000E+00
 ETOT  108  -18.004520994498      7.105E-15 9.853E-21 0.000E+00
 
 At SCF step  108   max residual=  9.85E-21 < tolwfr=  1.00E-20 =>converged.
================================================================================
 
 ----iterations are completed or convergence reached----
 
 dfpt_looppert: DFPT cycle converged with prtwf=-1. Will skip output of the 1st-order WFK file.
 dfpt_looppert : ek2=    3.7907994990E+01
          f-sum rule ratio=    1.0003065304E+00
 prteigrs : about to open file /scratch/users/j/a/jabreu/flow_simple_9atoms/flow/w125/t1/tmpdata/tmp_1WF1_EIG
 Expectation of eigenvalue derivatives (hartree) for nkpt=   2  k points:
  (in case of degenerate eigenvalues, averaged derivative)
 kpt#   1, nband= 45, wtk=  0.50000, kpt=  0.0000  0.0000  0.0000 (reduced coord)
   0.00000   -0.00000   -0.00000    0.00000   -0.00000   -0.00000   -0.00000    0.00000
   0.00000   -0.00000    0.00000   -0.00000    0.00000   -0.00000    0.00000    0.00000
   0.00000    0.00000   -0.00000   -0.00000   -0.00000    0.00000   -0.00000    0.00000
  -0.00000    0.00000    0.00000   -0.00000    0.00000    0.00000   -0.00000   -0.00000
  -0.00000   -0.00000   -0.00000   -0.00000   -0.00000    0.00000   -0.00000    0.00000
   0.00000   -0.00000   -0.00000    0.00000   -0.00000
 prteigrs : prtvol=0 or 1, do not print more k-points.
 
 
 Eight components of 2nd-order total energy (hartree) are
 1,2,3: 0th-order hamiltonian combined with 1st-order wavefunctions
     kin0=   3.09450422E+01 eigvalue=   1.40429009E+00  local=  -1.61032749E+01
 4,5,6: 1st-order hamiltonian combined with 1st and 0th-order wfs
     kin1=  -3.79196149E+01  Hartree=   0.00000000E+00     xc=   0.00000000E+00
 7,8,9: eventually, occupation + non-local contributions
    edocc=   3.53125289E+00     enl0=  -1.77278924E+00   enl1=   1.91057296E+00
 1-9 gives the relaxation energy (to be shifted if some occ is /=2.0)
   erelax=  -1.80045210E+01
  No Ewald or frozen-wf contrib.: the relaxation energy is the total one
 2DEtotal=   -0.1800452099E+02 Ha. Also 2DEtotal=   -0.489927931997E+03 eV
    (  non-var. 2DEtotal :   -1.8004520994E+01 Ha)
 
 CALCULATION OF EFFECTIVE MASSES
 NOTE : Additional infos (eff. mass eigenvalues, eigenvectors and, if degenerate, average mass) are available in stdout.

 K-point ( 0.000, 0.000, 0.000) | band =    36
 Effective mass tensor:
             -2.0199218262              0.6648276717             -0.1484611434
              0.6648276717             -3.7730092926             -0.0499324667
             -0.1484611434             -0.0499324667             -1.5178963644
 Effective mass tensor eigenvalues:
             -3.9966131629             -1.8666628997             -1.4475514206
 Angular average effective mass 1/(<1/m>)=  -2.0314894824
 Angular average effective mass for Frohlich model (<m**0.5>)**2=  -2.1309976187
 Effective masses along directions: (cart. coord. / red. coord. -> eff. mass)
    1:   1.000000  0.000000  0.000000 /   0.782107  0.623144  0.000000 ->  -1.8864753064
    2:   0.000000  1.000000  0.000000 /   0.000000  1.000000  0.000000 ->  -3.5477140296
    3:   0.000000  0.000000  1.000000 /   0.144152  0.144152  0.979000 ->  -1.5042384469
    4:   0.577350  0.577350  0.577350 /   0.518179  0.696704  0.496078 ->  -1.9760650205
    5:   0.000000  0.707107  0.707107 /   0.120342  0.563518  0.817292 ->  -2.1985234311
    6:   0.707107  0.000000  0.707107 /   0.620436  0.512109  0.593973 ->  -1.8433329464
    7:   0.707107  0.707107  0.000000 /   0.580947  0.813941  0.000000 ->  -1.9995501410

 K-point ( 0.000, 0.000, 0.500) | band =    37
 Effective mass tensor:
              2.3848071304              0.3518175796             -3.3779424045
              0.3518175796              1.4570975342             -1.1361151220
             -3.3779424045             -1.1361151220             23.7997670315
 Effective mass tensor eigenvalues:
              1.3387694718              1.9225649530             24.3803372714
 Angular average effective mass 1/(<1/m>)=   2.2933856003
 Angular average effective mass for Frohlich model (<m**0.5>)**2=   2.9401738433
 Effective masses along directions: (cart. coord. / red. coord. -> eff. mass)
    1:   1.000000  0.000000  0.000000 /   0.782107  0.623144  0.000000 ->   1.8794830425
    2:   0.000000  1.000000  0.000000 /   0.000000  1.000000  0.000000 ->   1.3838038342
    3:   0.000000  0.000000  1.000000 /   0.144152  0.144152  0.979000 ->  18.7256294081
    4:   0.577350  0.577350  0.577350 /   0.518179  0.696704  0.496078 ->   2.2121171693
    5:   0.000000  0.707107  0.707107 /   0.120342  0.563518  0.817292 ->   2.4256388501
    6:   0.707107  0.000000  0.707107 /   0.620436  0.512109  0.593973 ->   2.7412419388
    7:   0.707107  0.707107  0.000000 /   0.580947  0.813941  0.000000 ->   1.8015498724

 END OF EFFECTIVE MASSES SECTION

================================================================================
 
 ---- first-order wavefunction calculations are completed ----
 
 
 Total localisation tensor (bohr^2) in cartesian coordinates
  WARNING : still subject to testing - especially symmetries.
      direction              matrix element
   alpha     beta       real part   imaginary part
     1        1       3.0819047373    0.0000000000
     1        2       0.9076786271    0.0000000000
     1        3       0.5558240175    0.0000000000
     2        1       0.9076786271    0.0000000000
     2        2       0.6884423965    0.0000000000
     2        3       0.1869422835    0.0000000000
     3        1       0.5558240175    0.0000000000
     3        2       0.1869422835    0.0000000000
     3        3       0.7790863325    0.0000000000
 
 respfn : d/dk was computed, but no 2DTE, so no DDB output.
 
== END DATASET(S) ==============================================================
================================================================================
  
 -outvars: echo values of variables after computation  --------
            acell      1.0000000000E+00  1.0000000000E+00  1.0000000000E+00 Bohr
              amu      3.90983000E+01  4.78800000E+01  1.59994000E+01
             ecut      4.40000000E+01 Hartree
           etotal     -1.8004520994E+01
            fcart      0.0000000000E+00  0.0000000000E+00  0.0000000000E+00
                       0.0000000000E+00  0.0000000000E+00  0.0000000000E+00
                       0.0000000000E+00  0.0000000000E+00  0.0000000000E+00
                       0.0000000000E+00  0.0000000000E+00  0.0000000000E+00
                       0.0000000000E+00  0.0000000000E+00  0.0000000000E+00
                       0.0000000000E+00  0.0000000000E+00  0.0000000000E+00
                       0.0000000000E+00  0.0000000000E+00  0.0000000000E+00
                       0.0000000000E+00  0.0000000000E+00  0.0000000000E+00
                       0.0000000000E+00  0.0000000000E+00  0.0000000000E+00
-          fftalg         512
           irdden           1
           irdwfk           1
           istwfk        1    1
              ixc     -116133
              kpt      0.00000000E+00  0.00000000E+00  0.00000000E+00
                       0.00000000E+00  0.00000000E+00  5.00000000E-01
           kptopt           0
P           mkmem           2
P          mkqmem           2
P          mk1mem           2
            natom           9
            nband          45
           nbdbuf           4
            ngfft          72      72      80
             nkpt           2
            nstep        2000
             nsym           4
           ntypat           3
              occ      2.000000  2.000000  2.000000  2.000000  2.000000  2.000000
                       2.000000  2.000000  2.000000  2.000000  2.000000  2.000000
                       2.000000  2.000000  2.000000  2.000000  2.000000  2.000000
                       2.000000  2.000000  2.000000  2.000000  2.000000  2.000000
                       2.000000  2.000000  2.000000  2.000000  2.000000  2.000000
                       2.000000  2.000000  2.000000  2.000000  2.000000  2.000000
                       0.000000  0.000000  0.000000  0.000000  0.000000  0.000000
                       0.000000  0.000000  0.000000
        optdriver           1
            prtwf          -1
            rfdir           1       1       1
           rfelfd           2
            rprim      1.1151918157E+01  0.0000000000E+00  1.8299854620E+00
                       8.8853022478E+00  6.7391900505E+00  1.8299854620E+00
                       0.0000000000E+00  0.0000000000E+00  1.2428214603E+01
          spgroup          12
           strten      0.0000000000E+00  0.0000000000E+00  0.0000000000E+00
                       0.0000000000E+00  0.0000000000E+00  0.0000000000E+00
           symrel      1  0  0   0  1  0   0  0  1      -1  0  0   0 -1  0   0  0 -1
                       0 -1  0  -1  0  0   0  0 -1       0  1  0   1  0  0   0  0  1
           tolwfr      1.00000000E-20
            typat      1  1  2  2  3  3  3  3  3
           useylm           1
              wtk        0.50000    0.50000
           xangst      4.2748341939E+00  1.4377702838E+00  3.0785138392E+00
                       6.3284061676E+00  2.1284554953E+00  5.4349872692E+00
                       1.5648898320E+00  5.2632499783E-01  9.0002807524E-01
                       9.0383505295E+00  3.0399007812E+00  7.6134730331E+00
                       3.4207007698E+00  1.1504965324E+00  7.1176490576E+00
                       7.1825395917E+00  2.4157292467E+00  1.3958520507E+00
                       1.3290631631E+00  4.4700857028E-01  2.5922088085E+00
                       9.2741771984E+00  3.1192172088E+00  5.9212922999E+00
                       0.0000000000E+00  0.0000000000E+00  0.0000000000E+00
            xcart      8.0782658899E+00  2.7169920783E+00  5.8175480523E+00
                       1.1958954515E+01  4.0221979722E+00  1.0270637474E+01
                       2.9572132106E+00  9.9461010279E-01  1.7008065741E+00
                       1.7080007194E+01  5.7445799477E+00  1.4387378953E+01
                       6.4641876374E+00  2.1741233630E+00  1.3450407429E+01
                       1.3573032767E+01  4.5650666875E+00  2.6377780979E+00
                       2.5115653916E+00  8.4472377688E-01  4.8985647273E+00
                       1.7525655013E+01  5.8944662736E+00  1.1189620799E+01
                       0.0000000000E+00  0.0000000000E+00  0.0000000000E+00
             xred      4.0316300000E-01  4.0316300000E-01  3.4936500000E-01
                       5.9683700000E-01  5.9683700000E-01  6.5063500000E-01
                       1.4758600000E-01  1.4758600000E-01  9.3388000000E-02
                       8.5241400000E-01  8.5241400000E-01  9.0661200000E-01
                       3.2260900000E-01  3.2260900000E-01  9.8724300000E-01
                       6.7739100000E-01  6.7739100000E-01  1.2757000000E-02
                       1.2534500000E-01  1.2534500000E-01  3.5723600000E-01
                       8.7465500000E-01  8.7465500000E-01  6.4276400000E-01
                       0.0000000000E+00  0.0000000000E+00  0.0000000000E+00
            znucl       19.00000   22.00000    8.00000
 
================================================================================


- Timing analysis has been suppressed with timopt=0



================================================================================

 Suggested references for the acknowledgment of ABINIT usage.

 The users of ABINIT have little formal obligations with respect to the ABINIT group
 (those specified in the GNU General Public License, http://www.gnu.org/copyleft/gpl.txt).
 However, it is common practice in the scientific literature,
 to acknowledge the efforts of people that have made the research possible.
 In this spirit, please find below suggested citations of work written by ABINIT developers,
 corresponding to implementations inside of ABINIT that you have used in the present run.
 Note also that it will be of great value to readers of publications presenting these results,
 to read papers enabling them to understand the theoretical formalism and details
 of the ABINIT implementation.
 For information on why they are suggested, see also https://docs.abinit.org/theory/acknowledgments.
-
- [1] Precise effective masses from density functional perturbation theory
- J. Laflamme Janssen, Y. Gillet, S. Ponce, A. Martin, M. Torrent, and X. Gonze. Phys. Rev. B 93, 205147 (2016)
- Comment: in case the DFPT prediction of effective masses is used.
- Strong suggestion to cite this paper in your publications.
- DOI and bibtex: see https://docs.abinit.org/theory/bibliography/#laflamme2016
-
- [2] Libxc: A library of exchange and correlation functionals for density functional theory.
- M.A.L. Marques, M.J.T. Oliveira, T. Burnus, Computer Physics Communications 183, 2227 (2012).
- Comment: to be cited when LibXC is used (negative value of ixc)
- Strong suggestion to cite this paper.
- DOI and bibtex: see https://docs.abinit.org/theory/bibliography/#marques2012
-
- [3] The Abinit project: Impact, environment and recent developments.
- Computer Phys. Comm. 248, 107042 (2020).
- X.Gonze, B. Amadon, G. Antonius, F.Arnardi, L.Baguet, J.-M.Beuken,
- J.Bieder, F.Bottin, J.Bouchet, E.Bousquet, N.Brouwer, F.Bruneval,
- G.Brunin, T.Cavignac, J.-B. Charraud, Wei Chen, M.Cote, S.Cottenier,
- J.Denier, G.Geneste, Ph.Ghosez, M.Giantomassi, Y.Gillet, O.Gingras,
- D.R.Hamann, G.Hautier, Xu He, N.Helbig, N.Holzwarth, Y.Jia, F.Jollet,
- W.Lafargue-Dit-Hauret, K.Lejaeghere, M.A.L.Marques, A.Martin, C.Martins,
- H.P.C. Miranda, F.Naccarato, K. Persson, G.Petretto, V.Planes, Y.Pouillon,
- S.Prokhorenko, F.Ricci, G.-M.Rignanese, A.H.Romero, M.M.Schmitt, M.Torrent,
- M.J.van Setten, B.Van Troeye, M.J.Verstraete, G.Zerah and J.W.Zwanzig
- Comment: the fifth generic paper describing the ABINIT project.
- Note that a version of this paper, that is not formatted for Computer Phys. Comm. 
- is available at https://www.abinit.org/sites/default/files/ABINIT20.pdf .
- The licence allows the authors to put it on the Web.
- DOI and bibtex: see https://docs.abinit.org/theory/bibliography/#gonze2020
-
- [4] First-principles responses of solids to atomic displacements and homogeneous electric fields:,
- implementation of a conjugate-gradient algorithm. X. Gonze, Phys. Rev. B55, 10337 (1997).
- Comment: Non-vanishing rfphon and/or rfelfd, in the norm-conserving case.
- DOI and bibtex: see https://docs.abinit.org/theory/bibliography/#gonze1997
-
- [5] Dynamical matrices, Born effective charges, dielectric permittivity tensors, and ,
- interatomic force constants from density-functional perturbation theory,
- X. Gonze and C. Lee, Phys. Rev. B55, 10355 (1997).
- Comment: Non-vanishing rfphon and/or rfelfd, in the norm-conserving case.
- DOI and bibtex: see https://docs.abinit.org/theory/bibliography/#gonze1997a
-
- [6] Optimized norm-conserving Vanderbilt pseudopotentials.
- D.R. Hamann, Phys. Rev. B 88, 085117 (2013).
- Comment: Some pseudopotential generated using the ONCVPSP code were used.
- DOI and bibtex: see https://docs.abinit.org/theory/bibliography/#hamann2013
-
- [7] ABINIT: Overview, and focus on selected capabilities
- J. Chem. Phys. 152, 124102 (2020).
- A. Romero, D.C. Allan, B. Amadon, G. Antonius, T. Applencourt, L.Baguet,
- J.Bieder, F.Bottin, J.Bouchet, E.Bousquet, F.Bruneval,
- G.Brunin, D.Caliste, M.Cote,
- J.Denier, C. Dreyer, Ph.Ghosez, M.Giantomassi, Y.Gillet, O.Gingras,
- D.R.Hamann, G.Hautier, F.Jollet, G. Jomard,
- A.Martin, 
- H.P.C. Miranda, F.Naccarato, G.Petretto, N.A. Pike, V.Planes,
- S.Prokhorenko, T. Rangel, F.Ricci, G.-M.Rignanese, M.Royo, M.Stengel, M.Torrent,
- M.J.van Setten, B.Van Troeye, M.J.Verstraete, J.Wiktor, J.W.Zwanziger, and X.Gonze.
- Comment: a global overview of ABINIT, with focus on selected capabilities .
- Note that a version of this paper, that is not formatted for J. Chem. Phys 
- is available at https://www.abinit.org/sites/default/files/ABINIT20_JPC.pdf .
- The licence allows the authors to put it on the Web.
- DOI and bibtex: see https://docs.abinit.org/theory/bibliography/#romero2020
-
- [8] Recent developments in the ABINIT software package.
- Computer Phys. Comm. 205, 106 (2016).
- X.Gonze, F.Jollet, F.Abreu Araujo, D.Adams, B.Amadon, T.Applencourt,
- C.Audouze, J.-M.Beuken, J.Bieder, A.Bokhanchuk, E.Bousquet, F.Bruneval
- D.Caliste, M.Cote, F.Dahm, F.Da Pieve, M.Delaveau, M.Di Gennaro,
- B.Dorado, C.Espejo, G.Geneste, L.Genovese, A.Gerossier, M.Giantomassi,
- Y.Gillet, D.R.Hamann, L.He, G.Jomard, J.Laflamme Janssen, S.Le Roux,
- A.Levitt, A.Lherbier, F.Liu, I.Lukacevic, A.Martin, C.Martins,
- M.J.T.Oliveira, S.Ponce, Y.Pouillon, T.Rangel, G.-M.Rignanese,
- A.H.Romero, B.Rousseau, O.Rubel, A.A.Shukri, M.Stankovski, M.Torrent,
- M.J.Van Setten, B.Van Troeye, M.J.Verstraete, D.Waroquier, J.Wiktor,
- B.Xu, A.Zhou, J.W.Zwanziger.
- Comment: the fourth generic paper describing the ABINIT project.
- Note that a version of this paper, that is not formatted for Computer Phys. Comm. 
- is available at https://www.abinit.org/sites/default/files/ABINIT16.pdf .
- The licence allows the authors to put it on the Web.
- DOI and bibtex: see https://docs.abinit.org/theory/bibliography/#gonze2016
-
- Proc.   0 individual time (sec): cpu=        912.1  wall=        926.8
 
================================================================================
 
 Calculation completed.
.Delivered  14 WARNINGs and   9 COMMENTs to log file.
+Overall time at end (sec) : cpu=        912.1  wall=        926.8
