
.Version 9.7.2 of ABINIT 
.(MPI version, prepared for a x86_64_linux_intel19.1 computer) 

.Copyright (C) 1998-2021 ABINIT group . 
 ABINIT comes with ABSOLUTELY NO WARRANTY.
 It is free software, and you are welcome to redistribute it
 under certain conditions (GNU General Public License,
 see ~abinit/COPYING or http://www.gnu.org/copyleft/gpl.txt).

 ABINIT is a project of the Universite Catholique de Louvain,
 Corning Inc. and other collaborators, see ~abinit/doc/developers/contributors.txt .
 Please read https://docs.abinit.org/theory/acknowledgments for suggested
 acknowledgments of the ABINIT effort.
 For more information, see https://www.abinit.org .

.Starting date : Wed  1 Dec 2021.
- ( at 22h03 )
  
- input  file    -> /scratch/users/j/a/jabreu/flow_simple_remain_atoms/flow/w274/t1/run.abi
- output file    -> /scratch/users/j/a/jabreu/flow_simple_remain_atoms/flow/w274/t1/run.abo
- root for input  files -> /scratch/users/j/a/jabreu/flow_simple_remain_atoms/flow/w274/t1/indata/in
- root for output files -> /scratch/users/j/a/jabreu/flow_simple_remain_atoms/flow/w274/t1/outdata/out
 
 
 Symmetries : space group Pm -3 m (#221); Bravais cP (primitive cubic)
================================================================================
 Values of the parameters that define the memory need of the present run (RF).
     intxc =       0      iscf =       7    lmnmax =      18     lnmax =       6
     mgfft =      48  mpssoang =       3    mqgrid =    3001     natom =       5
  nloc_mem =       1    nspden =       1   nspinor =       1    nsppol =       1
      nsym =      48    n1xccc =    2501    ntypat =       3    occopt =       1
   xclevel =       2
-    mband =          29        mffmem =           1         mkmem =           2
-   mkqmem =           2        mk1mem =           2           mpw =        6931
      nfft =      110592          nkpt =           2
================================================================================
P This job should need less than                      77.889 Mbytes of memory.
  Rough estimation (10% accuracy) of disk space for files :
_ WF disk file :      6.136 Mbytes ; DEN or POT disk file :      0.846 Mbytes.
================================================================================
 
--------------------------------------------------------------------------------
------------- Echo of variables that govern the present computation ------------
--------------------------------------------------------------------------------
-
- outvars: echo of selected default values                                      
-   iomode0 =  0 , fftalg0 =512 , wfoptalg0 =  0
-
- outvars: echo of global parameters not present in the input file              
-  max_nthreads =    0
-
 -outvars: echo values of preprocessed input variables --------
            acell      1.0000000000E+00  1.0000000000E+00  1.0000000000E+00 Bohr
              amu      1.37327000E+02  9.12240000E+01  1.59994000E+01
             ecut      4.40000000E+01 Hartree
-          fftalg         512
           irdden           1
           irdwfk           1
           istwfk        1    1
              ixc     -116133
              kpt      5.00000000E-01  5.00000000E-01  5.00000000E-01
                       0.00000000E+00  0.00000000E+00  0.00000000E+00
           kptopt           0
P           mkmem           2
P          mkqmem           2
P          mk1mem           2
            natom           5
            nband          29
           nbdbuf           4
            ngfft          48      48      48
             nkpt           2
            nstep        2000
             nsym          48
           ntypat           3
              occ      2.000000  2.000000  2.000000  2.000000  2.000000  2.000000
                       2.000000  2.000000  2.000000  2.000000  2.000000  2.000000
                       2.000000  2.000000  2.000000  2.000000  2.000000  2.000000
                       2.000000  2.000000  0.000000  0.000000  0.000000  0.000000
                       0.000000  0.000000  0.000000  0.000000  0.000000
        optdriver           1
            prtwf          -1
            rfdir           1       1       1
           rfelfd           2
            rprim      7.9041550615E+00  0.0000000000E+00  0.0000000000E+00
                       0.0000000000E+00  7.9041550615E+00  0.0000000000E+00
                       0.0000000000E+00  0.0000000000E+00  7.9041550615E+00
          spgroup         221
           symrel      1  0  0   0  1  0   0  0  1      -1  0  0   0 -1  0   0  0 -1
                      -1  0  0   0  1  0   0  0 -1       1  0  0   0 -1  0   0  0  1
                      -1  0  0   0 -1  0   0  0  1       1  0  0   0  1  0   0  0 -1
                       1  0  0   0 -1  0   0  0 -1      -1  0  0   0  1  0   0  0  1
                       0  1  0   1  0  0   0  0  1       0 -1  0  -1  0  0   0  0 -1
                       0 -1  0   1  0  0   0  0 -1       0  1  0  -1  0  0   0  0  1
                       0 -1  0  -1  0  0   0  0  1       0  1  0   1  0  0   0  0 -1
                       0  1  0  -1  0  0   0  0 -1       0 -1  0   1  0  0   0  0  1
                       0  0  1   1  0  0   0  1  0       0  0 -1  -1  0  0   0 -1  0
                       0  0 -1   1  0  0   0 -1  0       0  0  1  -1  0  0   0  1  0
                       0  0 -1  -1  0  0   0  1  0       0  0  1   1  0  0   0 -1  0
                       0  0  1  -1  0  0   0 -1  0       0  0 -1   1  0  0   0  1  0
                       1  0  0   0  0  1   0  1  0      -1  0  0   0  0 -1   0 -1  0
                      -1  0  0   0  0  1   0 -1  0       1  0  0   0  0 -1   0  1  0
                      -1  0  0   0  0 -1   0  1  0       1  0  0   0  0  1   0 -1  0
                       1  0  0   0  0 -1   0 -1  0      -1  0  0   0  0  1   0  1  0
                       0  1  0   0  0  1   1  0  0       0 -1  0   0  0 -1  -1  0  0
                       0 -1  0   0  0  1  -1  0  0       0  1  0   0  0 -1   1  0  0
                       0 -1  0   0  0 -1   1  0  0       0  1  0   0  0  1  -1  0  0
                       0  1  0   0  0 -1  -1  0  0       0 -1  0   0  0  1   1  0  0
                       0  0  1   0  1  0   1  0  0       0  0 -1   0 -1  0  -1  0  0
                       0  0 -1   0  1  0  -1  0  0       0  0  1   0 -1  0   1  0  0
                       0  0 -1   0 -1  0   1  0  0       0  0  1   0  1  0  -1  0  0
                       0  0  1   0 -1  0  -1  0  0       0  0 -1   0  1  0   1  0  0
           tolwfr      1.00000000E-20
            typat      1  2  3  3  3
           useylm           1
              wtk        0.50000    0.50000
           xangst      0.0000000000E+00  0.0000000000E+00  0.0000000000E+00
                       2.0913493559E+00  2.0913493559E+00  2.0913493559E+00
                       2.0913493559E+00  0.0000000000E+00  2.0913493559E+00
                       2.0913493559E+00  2.0913493559E+00  0.0000000000E+00
                       0.0000000000E+00  2.0913493559E+00  2.0913493559E+00
            xcart      0.0000000000E+00  0.0000000000E+00  0.0000000000E+00
                       3.9520775308E+00  3.9520775308E+00  3.9520775308E+00
                       3.9520775308E+00  0.0000000000E+00  3.9520775308E+00
                       3.9520775308E+00  3.9520775308E+00  0.0000000000E+00
                       0.0000000000E+00  3.9520775308E+00  3.9520775308E+00
             xred      0.0000000000E+00  0.0000000000E+00  0.0000000000E+00
                       5.0000000000E-01  5.0000000000E-01  5.0000000000E-01
                       5.0000000000E-01  0.0000000000E+00  5.0000000000E-01
                       5.0000000000E-01  5.0000000000E-01  0.0000000000E+00
                       0.0000000000E+00  5.0000000000E-01  5.0000000000E-01
            znucl       56.00000   40.00000    8.00000
 
================================================================================
 
 chkinp: Checking input parameters for consistency.
 
================================================================================
== DATASET  1 ==================================================================
-   mpi_nproc: 1, omp_nthreads: -1 (-1 if OMP is not activated)
 

--- !DatasetInfo
iteration_state: {dtset: 1, }
dimensions: {natom: 5, nkpt: 2, mband: 29, nsppol: 1, nspinor: 1, nspden: 1, mpw: 6931, }
cutoff_energies: {ecut:  44.0, pawecutdg:  -1.0, }
electrons: {nelect:   4.00000000E+01, charge:   0.00000000E+00, occopt:   1.00000000E+00, tsmear:   1.00000000E-02, }
meta: {optdriver: 1, rfelfd: 2, }
...

 Real(R)+Recip(G) space primitive vectors, cartesian coordinates (Bohr,Bohr^-1):
 R(1)=  7.9041551  0.0000000  0.0000000  G(1)=  0.1265157  0.0000000  0.0000000
 R(2)=  0.0000000  7.9041551  0.0000000  G(2)=  0.0000000  0.1265157  0.0000000
 R(3)=  0.0000000  0.0000000  7.9041551  G(3)=  0.0000000  0.0000000  0.1265157
 Unit cell volume ucvol=  4.9381736E+02 bohr^3
 Angles (23,13,12)=  9.00000000E+01  9.00000000E+01  9.00000000E+01 degrees
 
 getcut: wavevector=  0.0000  0.0000  0.0000  ngfft=  48  48  48
         ecut(hartree)=     44.000   => boxcut(ratio)=   2.03373
 
--- Pseudopotential description ------------------------------------------------
- pspini: atom type   1  psp file is /scratch/users/j/a/jabreu/pseudos/PBEsol/Ba.psp8
- pspatm: opening atomic psp file    /scratch/users/j/a/jabreu/pseudos/PBEsol/Ba.psp8
- Ba    ONCVPSP-3.3.0  r_core=   2.15444   1.91218   2.15444
- 56.00000  10.00000    180112                znucl, zion, pspdat
    8 -116133    2    4       600   0.00000   pspcod,pspxc,lmax,lloc,mmax,r2well
    5.99000000000000    5.00000000000000    0.00000000000000   rchrg,fchrg,qchrg
     nproj     2     2     2
     extension_switch     1
  pspatm : epsatm=   26.37418029
         --- l  ekb(1:nproj) -->
             0    6.652372    0.677024
             1    5.027722    0.408462
             2    2.543237    0.416854
 pspatm: atomic psp has been read  and splines computed
 
- pspini: atom type   2  psp file is /scratch/users/j/a/jabreu/pseudos/PBEsol/Zr.psp8
- pspatm: opening atomic psp file    /scratch/users/j/a/jabreu/pseudos/PBEsol/Zr.psp8
- Zr    ONCVPSP-3.3.0  r_core=   1.56507   1.56507   1.51006
- 40.00000  12.00000    180112                znucl, zion, pspdat
    8 -116133    2    4       600   0.00000   pspcod,pspxc,lmax,lloc,mmax,r2well
    5.99000000000000    5.00000000000000    0.00000000000000   rchrg,fchrg,qchrg
     nproj     2     2     2
     extension_switch     1
  pspatm : epsatm=   18.88750170
         --- l  ekb(1:nproj) -->
             0   10.584966    0.890424
             1    5.814585    0.741293
             2    1.525459    0.487901
 pspatm: atomic psp has been read  and splines computed
 
- pspini: atom type   3  psp file is /scratch/users/j/a/jabreu/pseudos/PBEsol/O.psp8
- pspatm: opening atomic psp file    /scratch/users/j/a/jabreu/pseudos/PBEsol/O.psp8
- O     ONCVPSP-3.3.0  r_core=   1.35509   1.45563   1.26150
-  8.00000   6.00000    180112                znucl, zion, pspdat
    8 -116133    2    4       600   0.00000   pspcod,pspxc,lmax,lloc,mmax,r2well
    5.99000000000000    4.00000000000000    0.00000000000000   rchrg,fchrg,qchrg
     nproj     2     2     1
     extension_switch     1
  pspatm : epsatm=    6.22910522
         --- l  ekb(1:nproj) -->
             0    6.050032    0.820363
             1   -4.739617   -1.153841
             2   -1.335834
 pspatm: atomic psp has been read  and splines computed
 
   2.55795991E+03                                ecore*ucvol(ha*bohr**3)
--------------------------------------------------------------------------------
 
 
 ==>  initialize data related to q vector <== 
 
 The list of irreducible perturbations for this q vector is:
    1)    idir= 1    ipert=   6
    2)    idir= 2    ipert=   6
    3)    idir= 3    ipert=   6
 
================================================================================
 
--------------------------------------------------------------------------------
 Perturbation wavevector (in red.coord.)   0.000000  0.000000  0.000000
 Perturbation : derivative vs k along direction   1
 
 dfpt_looppert : COMMENT -
  In a d/dk calculation, iscf is set to -3 automatically.
 The set of symmetries contains only one element for this perturbation.
 symkpt : not enough symmetry to change the number of k points.
 
--------------------------------------------------------------------------------
 
--------------------------------------------------------------------------------
 
 Initialisation of the first-order wave-functions :
  ireadwf=   0

--- !BeginCycle
iteration_state: {dtset: 1, }
solver: {iscf: 7, nstep: 2000, nline: 4, wfoptalg: 0, }
tolerances: {tolwfr: 1.00E-20, }
...
 
     iter   2DEtotal(Ha)        deltaE(Ha) residm    vres2
-ETOT  1  -32.915678996701     -3.292E+01 2.062E-02 0.000E+00
 ETOT  2  -32.923888491533     -8.209E-03 4.732E-04 0.000E+00
 ETOT  3  -32.923901755863     -1.326E-05 6.949E-07 0.000E+00
 ETOT  4  -32.923901808612     -5.275E-08 1.216E-07 0.000E+00
 ETOT  5  -32.923901809032     -4.201E-10 6.389E-10 0.000E+00
 ETOT  6  -32.923901809036     -3.602E-12 9.212E-11 0.000E+00
 ETOT  7  -32.923901809036      1.421E-14 6.276E-13 0.000E+00
 ETOT  8  -32.923901809036      1.421E-14 1.370E-13 0.000E+00
 ETOT  9  -32.923901809036     -2.132E-14 9.307E-16 0.000E+00
 ETOT 10  -32.923901809036     -7.105E-15 3.180E-16 0.000E+00
 ETOT 11  -32.923901809036      1.421E-14 1.787E-18 0.000E+00
 ETOT 12  -32.923901809036      7.105E-15 5.629E-19 0.000E+00
 ETOT 13  -32.923901809036      0.000E+00 9.782E-21 0.000E+00
 
 At SCF step   13   max residual=  9.78E-21 < tolwfr=  1.00E-20 =>converged.
================================================================================
 
 ----iterations are completed or convergence reached----
 
 dfpt_looppert: DFPT cycle converged with prtwf=-1. Will skip output of the 1st-order WFK file.
 dfpt_looppert : ek2=    5.0552055673E+01
          f-sum rule ratio=    1.2841506120E+00
 prteigrs : about to open file /scratch/users/j/a/jabreu/flow_simple_remain_atoms/flow/w274/t1/tmpdata/tmp_1WF1_EIG
 Expectation of eigenvalue derivatives (hartree) for nkpt=   2  k points:
  (in case of degenerate eigenvalues, averaged derivative)
 kpt#   1, nband= 29, wtk=  0.50000, kpt=  0.5000  0.5000  0.5000 (reduced coord)
   0.00000    0.00000    0.00000    0.00000    0.00000    0.00000    0.00000    0.00000
  -0.00000   -0.00000   -0.00000   -0.00000   -0.00000   -0.00000    0.00000    0.00000
   0.00000   -0.00000   -0.00000   -0.00000    0.00000    0.00000    0.00000    0.00000
   0.00000    0.00000    0.00000    0.00000    0.00000
 prteigrs : prtvol=0 or 1, do not print more k-points.
 
 
 Eight components of 2nd-order total energy (hartree) are
 1,2,3: 0th-order hamiltonian combined with 1st-order wavefunctions
     kin0=   2.92471247E+01 eigvalue=  -1.42506188E+00  local=  -1.28327700E+01
 4,5,6: 1st-order hamiltonian combined with 1st and 0th-order wfs
     kin1=  -6.49164532E+01  Hartree=   0.00000000E+00     xc=   0.00000000E+00
 7,8,9: eventually, occupation + non-local contributions
    edocc=   1.67717210E+01     enl0=   1.16288791E+00   enl1=  -9.31350387E-01
 1-9 gives the relaxation energy (to be shifted if some occ is /=2.0)
   erelax=  -3.29239018E+01
  No Ewald or frozen-wf contrib.: the relaxation energy is the total one
 2DEtotal=   -0.3292390181E+02 Ha. Also 2DEtotal=   -0.895904930295E+03 eV
    (  non-var. 2DEtotal :   -3.2923901809E+01 Ha)
 
--------------------------------------------------------------------------------
 Perturbation wavevector (in red.coord.)   0.000000  0.000000  0.000000
 Perturbation : derivative vs k along direction   2
 The set of symmetries contains only one element for this perturbation.
 symkpt : not enough symmetry to change the number of k points.
 
--------------------------------------------------------------------------------
 
--------------------------------------------------------------------------------
 
 Initialisation of the first-order wave-functions :
  ireadwf=   0

--- !BeginCycle
iteration_state: {dtset: 1, }
solver: {iscf: 7, nstep: 2000, nline: 4, wfoptalg: 0, }
tolerances: {tolwfr: 1.00E-20, }
...
 
     iter   2DEtotal(Ha)        deltaE(Ha) residm    vres2
-ETOT  1  -32.916375400314     -3.292E+01 2.062E-02 0.000E+00
 ETOT  2  -32.923677769601     -7.302E-03 4.732E-04 0.000E+00
 ETOT  3  -32.923688199215     -1.043E-05 6.949E-07 0.000E+00
 ETOT  4  -32.923688239035     -3.982E-08 1.217E-07 0.000E+00
 ETOT  5  -32.923688239330     -2.946E-10 6.311E-10 0.000E+00
 ETOT  6  -32.923688239332     -2.423E-12 9.871E-11 0.000E+00
 ETOT  7  -32.923688239332     -5.684E-14 8.345E-13 0.000E+00
 ETOT  8  -32.923688239332      2.132E-14 2.936E-13 0.000E+00
 ETOT  9  -32.923688239332     -7.105E-15 1.728E-15 0.000E+00
 ETOT 10  -32.923688239332     -7.105E-15 6.710E-16 0.000E+00
 ETOT 11  -32.923688239332      7.105E-15 4.268E-18 0.000E+00
 ETOT 12  -32.923688239332      0.000E+00 1.597E-18 0.000E+00
 ETOT 13  -32.923688239332     -7.105E-15 1.045E-20 0.000E+00
 ETOT 14  -32.923688239332      7.105E-15 9.998E-21 0.000E+00
 
 At SCF step   14   max residual=  1.00E-20 < tolwfr=  1.00E-20 =>converged.
================================================================================
 
 ----iterations are completed or convergence reached----
 
 dfpt_looppert: DFPT cycle converged with prtwf=-1. Will skip output of the 1st-order WFK file.
 dfpt_looppert : ek2=    5.0552055673E+01
          f-sum rule ratio=    1.2841413390E+00
 prteigrs : about to open file /scratch/users/j/a/jabreu/flow_simple_remain_atoms/flow/w274/t1/tmpdata/tmp_1WF1_EIG
 Expectation of eigenvalue derivatives (hartree) for nkpt=   2  k points:
  (in case of degenerate eigenvalues, averaged derivative)
 kpt#   1, nband= 29, wtk=  0.50000, kpt=  0.5000  0.5000  0.5000 (reduced coord)
   0.00000    0.00000    0.00000    0.00000    0.00000    0.00000    0.00000    0.00000
   0.00000    0.00000    0.00000    0.00000    0.00000   -0.00000    0.00000    0.00000
   0.00000    0.00000    0.00000    0.00000   -0.00000   -0.00000   -0.00000    0.00000
   0.00000    0.00000   -0.00000   -0.00000    0.00000
 prteigrs : prtvol=0 or 1, do not print more k-points.
 
 
 Eight components of 2nd-order total energy (hartree) are
 1,2,3: 0th-order hamiltonian combined with 1st-order wavefunctions
     kin0=   2.75578672E+01 eigvalue=  -1.28527022E+00  local=  -1.17411074E+01
 4,5,6: 1st-order hamiltonian combined with 1st and 0th-order wfs
     kin1=  -6.49159845E+01  Hartree=   0.00000000E+00     xc=   0.00000000E+00
 7,8,9: eventually, occupation + non-local contributions
    edocc=   1.74303804E+01     enl0=   9.61818287E-01   enl1=  -9.31392015E-01
 1-9 gives the relaxation energy (to be shifted if some occ is /=2.0)
   erelax=  -3.29236882E+01
  No Ewald or frozen-wf contrib.: the relaxation energy is the total one
 2DEtotal=   -0.3292368824E+02 Ha. Also 2DEtotal=   -0.895899118767E+03 eV
    (  non-var. 2DEtotal :   -3.2923688239E+01 Ha)
 
--------------------------------------------------------------------------------
 Perturbation wavevector (in red.coord.)   0.000000  0.000000  0.000000
 Perturbation : derivative vs k along direction   3
 The set of symmetries contains only one element for this perturbation.
 symkpt : not enough symmetry to change the number of k points.
 
--------------------------------------------------------------------------------
 
--------------------------------------------------------------------------------
 
 Initialisation of the first-order wave-functions :
  ireadwf=   0

--- !BeginCycle
iteration_state: {dtset: 1, }
solver: {iscf: 7, nstep: 2000, nline: 4, wfoptalg: 0, }
tolerances: {tolwfr: 1.00E-20, }
...
 
     iter   2DEtotal(Ha)        deltaE(Ha) residm    vres2
-ETOT  1  -32.916542293101     -3.292E+01 2.062E-02 0.000E+00
 ETOT  2  -32.923669469136     -7.127E-03 4.732E-04 0.000E+00
 ETOT  3  -32.923679431726     -9.963E-06 6.949E-07 0.000E+00
 ETOT  4  -32.923679462081     -3.035E-08 1.216E-07 0.000E+00
 ETOT  5  -32.923679462296     -2.150E-10 6.387E-10 0.000E+00
 ETOT  6  -32.923679462298     -1.712E-12 9.200E-11 0.000E+00
 ETOT  7  -32.923679462298     -2.132E-14 6.261E-13 0.000E+00
 ETOT  8  -32.923679462298      7.105E-15 1.326E-13 0.000E+00
 ETOT  9  -32.923679462298     -1.421E-14 8.815E-16 0.000E+00
 ETOT 10  -32.923679462298      7.105E-15 3.035E-16 0.000E+00
 ETOT 11  -32.923679462298     -7.105E-15 1.695E-18 0.000E+00
 ETOT 12  -32.923679462298      7.105E-15 5.340E-19 0.000E+00
 ETOT 13  -32.923679462298      7.105E-15 9.779E-21 0.000E+00
 
 At SCF step   13   max residual=  9.78E-21 < tolwfr=  1.00E-20 =>converged.
================================================================================
 
 ----iterations are completed or convergence reached----
 
 dfpt_looppert: DFPT cycle converged with prtwf=-1. Will skip output of the 1st-order WFK file.
 dfpt_looppert : ek2=    5.0552055673E+01
          f-sum rule ratio=    1.2841407197E+00
 prteigrs : about to open file /scratch/users/j/a/jabreu/flow_simple_remain_atoms/flow/w274/t1/tmpdata/tmp_1WF1_EIG
 Expectation of eigenvalue derivatives (hartree) for nkpt=   2  k points:
  (in case of degenerate eigenvalues, averaged derivative)
 kpt#   1, nband= 29, wtk=  0.50000, kpt=  0.5000  0.5000  0.5000 (reduced coord)
   0.00000   -0.00000   -0.00000   -0.00000    0.00000    0.00000    0.00000    0.00000
   0.00000    0.00000    0.00000   -0.00000   -0.00000   -0.00000    0.00000    0.00000
   0.00000   -0.00000   -0.00000   -0.00000   -0.00000   -0.00000   -0.00000   -0.00000
  -0.00000   -0.00000    0.00000    0.00000   -0.00000
 prteigrs : prtvol=0 or 1, do not print more k-points.
 
 
 Eight components of 2nd-order total energy (hartree) are
 1,2,3: 0th-order hamiltonian combined with 1st-order wavefunctions
     kin0=   2.70347163E+01 eigvalue=  -1.24197843E+00  local=  -1.14030201E+01
 4,5,6: 1st-order hamiltonian combined with 1st and 0th-order wfs
     kin1=  -6.49159532E+01  Hartree=   0.00000000E+00     xc=   0.00000000E+00
 7,8,9: eventually, occupation + non-local contributions
    edocc=   1.76344383E+01     enl0=   8.99523425E-01   enl1=  -9.31405771E-01
 1-9 gives the relaxation energy (to be shifted if some occ is /=2.0)
   erelax=  -3.29236795E+01
  No Ewald or frozen-wf contrib.: the relaxation energy is the total one
 2DEtotal=   -0.3292367946E+02 Ha. Also 2DEtotal=   -0.895898879932E+03 eV
    (  non-var. 2DEtotal :   -3.2923679462E+01 Ha)
 
 CALCULATION OF EFFECTIVE MASSES
 NOTE : Additional infos (eff. mass eigenvalues, eigenvectors and, if degenerate, average mass) are available in stdout.

 COMMENTS: 
 - At k-point ( 0.500, 0.500, 0.500), bands    18 through    20
   are DEGENERATE (effective mass tensor is therefore not defined).
   See Section IIIB Eqs. (67)-(70) and Appendix E of PRB 93 205147 (2016).
 - Angular average effective mass for Frohlich model is to be averaged over degenerate bands. See later.
 - Associated theta integrals calculated with ntheta=   1000 points.

 K-point ( 0.500, 0.500, 0.500) | band =    18
 Transport equivalent effective mass tensor:
             -0.8640037772              0.0000000006              0.0000000000
              0.0000000006             -0.8640040540              0.0000000003
              0.0000000000              0.0000000003             -0.8640026902
 Transport equivalent effective mass tensor eigenvalues:
             -0.8640040540             -0.8640037772             -0.8640026902
 Angular average effective mass 1/(<1/m>)=  -0.8434185031
 Angular average effective mass for Frohlich model (<m**0.5>)**2=  -0.8442519286
 Effective masses along directions: (cart. coord. / red. coord. -> eff. mass)
    1:   1.000000  0.000000  0.000000 /   1.000000  0.000000  0.000000 ->  -0.8156475998
    2:   0.000000  1.000000  0.000000 /   0.000000  1.000000  0.000000 ->  -0.8156475999
    3:   0.000000  0.000000  1.000000 /   0.000000  0.000000  1.000000 ->  -0.8156476001
    4:   0.577350  0.577350  0.577350 /   0.577350  0.577350  0.577350 ->  -0.9540778155
    5:   0.000000  0.707107  0.707107 /   0.000000  0.707107  0.707107 ->  -0.8156476000
    6:   0.707107  0.000000  0.707107 /   0.707107  0.000000  0.707107 ->  -0.8156476000
    7:   0.707107  0.707107  0.000000 /   0.707107  0.707107  0.000000 ->  -0.8156475999

 K-point ( 0.500, 0.500, 0.500) | band =    19
 Transport equivalent effective mass tensor:
             -0.9984892791              0.0000000054             -0.0000000001
              0.0000000054             -0.9984889122              0.0000000018
             -0.0000000001              0.0000000018             -0.9984904429
 Transport equivalent effective mass tensor eigenvalues:
             -0.9984904429             -0.9984892791             -0.9984889121
 Angular average effective mass 1/(<1/m>)=  -0.9379727971
 Angular average effective mass for Frohlich model (<m**0.5>)**2=  -0.9412171433
 Effective masses along directions: (cart. coord. / red. coord. -> eff. mass)
    1:   1.000000  0.000000  0.000000 /   1.000000  0.000000  0.000000 ->  -0.8156475998
    2:   0.000000  1.000000  0.000000 /   0.000000  1.000000  0.000000 ->  -0.8156476000
    3:   0.000000  0.000000  1.000000 /   0.000000  0.000000  1.000000 ->  -0.8156476001
    4:   0.577350  0.577350  0.577350 /   0.577350  0.577350  0.577350 ->  -0.9540778240
    5:   0.000000  0.707107  0.707107 /   0.000000  0.707107  0.707107 ->  -1.0425474445
    6:   0.707107  0.000000  0.707107 /   0.707107  0.000000  0.707107 ->  -1.0425474469
    7:   0.707107  0.707107  0.000000 /   0.707107  0.707107  0.000000 ->  -1.0425474392

 K-point ( 0.500, 0.500, 0.500) | band =    20
 Transport equivalent effective mass tensor:
            -17.0140642391              0.0000000179              0.0000000010
              0.0000000179            -17.0140642262              0.0000000090
              0.0000000010              0.0000000090            -17.0140642540
 Transport equivalent effective mass tensor eigenvalues:
            -17.0140642583            -17.0140642489            -17.0140642121
 Angular average effective mass 1/(<1/m>)=  -3.5854514943
 Angular average effective mass for Frohlich model (<m**0.5>)**2=  -4.0569382950
 Effective masses along directions: (cart. coord. / red. coord. -> eff. mass)
    1:   1.000000  0.000000  0.000000 /   1.000000  0.000000  0.000000 -> -12.7152734615
    2:   0.000000  1.000000  0.000000 /   0.000000  1.000000  0.000000 -> -12.7152734351
    3:   0.000000  0.000000  1.000000 /   0.000000  0.000000  1.000000 -> -12.7152734872
    4:   0.577350  0.577350  0.577350 /   0.577350  0.577350  0.577350 ->  -2.3019205701
    5:   0.000000  0.707107  0.707107 /   0.000000  0.707107  0.707107 ->  -2.8945546885
    6:   0.707107  0.000000  0.707107 /   0.707107  0.000000  0.707107 ->  -2.8945546846
    7:   0.707107  0.707107  0.000000 /   0.707107  0.707107  0.000000 ->  -2.8945547028

 Angular average effective mass for Frohlich model, averaged over degenerate bands.
 Value of     (<<m**0.5>>)**2 =     1.692757E+00
 Absolute Value of <<m**0.5>> =     1.301060E+00


 COMMENTS: 
 - At k-point ( 0.000, 0.000, 0.000), bands    21 through    23
   are DEGENERATE (effective mass tensor is therefore not defined).
   See Section IIIB Eqs. (67)-(70) and Appendix E of PRB 93 205147 (2016).
 - Angular average effective mass for Frohlich model is to be averaged over degenerate bands. See later.
 - Associated theta integrals calculated with ntheta=   1000 points.

 K-point ( 0.000, 0.000, 0.000) | band =    21
 Transport equivalent effective mass tensor:
              3.1744259815              0.0000000053             -0.0000000032
              0.0000000053              3.1744259691              0.0000000023
             -0.0000000032              0.0000000023              3.1744259876
 Transport equivalent effective mass tensor eigenvalues:
              3.1744259889              3.1744259827              3.1744259666
 Angular average effective mass 1/(<1/m>)=   0.8790375063
 Angular average effective mass for Frohlich model (<m**0.5>)**2=   0.9768746637
 Effective masses along directions: (cart. coord. / red. coord. -> eff. mass)
    1:   1.000000  0.000000  0.000000 /   1.000000  0.000000  0.000000 ->   2.3885007330
    2:   0.000000  1.000000  0.000000 /   0.000000  1.000000  0.000000 ->   2.3885007327
    3:   0.000000  0.000000  1.000000 /   0.000000  0.000000  1.000000 ->   2.3885007332
    4:   0.577350  0.577350  0.577350 /   0.577350  0.577350  0.577350 ->   0.5355731936
    5:   0.000000  0.707107  0.707107 /   0.000000  0.707107  0.707107 ->   0.6644354981
    6:   0.707107  0.000000  0.707107 /   0.707107  0.000000  0.707107 ->   0.6644354976
    7:   0.707107  0.707107  0.000000 /   0.707107  0.707107  0.000000 ->   0.6644354979

 K-point ( 0.000, 0.000, 0.000) | band =    22
 Transport equivalent effective mass tensor:
              0.5435206658             -0.0000000002             -0.0000000000
             -0.0000000002              0.5435202705             -0.0000000001
             -0.0000000000             -0.0000000001              0.5435217629
 Transport equivalent effective mass tensor eigenvalues:
              0.5435217629              0.5435206658              0.5435202705
 Angular average effective mass 1/(<1/m>)=   0.4189956983
 Angular average effective mass for Frohlich model (<m**0.5>)**2=   0.4240194116
 Effective masses along directions: (cart. coord. / red. coord. -> eff. mass)
    1:   1.000000  0.000000  0.000000 /   1.000000  0.000000  0.000000 ->   0.3385601286
    2:   0.000000  1.000000  0.000000 /   0.000000  1.000000  0.000000 ->   0.3385601252
    3:   0.000000  0.000000  1.000000 /   0.000000  0.000000  1.000000 ->   0.3385601306
    4:   0.577350  0.577350  0.577350 /   0.577350  0.577350  0.577350 ->   0.4485426907
    5:   0.000000  0.707107  0.707107 /   0.000000  0.707107  0.707107 ->   0.5355266206
    6:   0.707107  0.000000  0.707107 /   0.707107  0.000000  0.707107 ->   0.5355266298
    7:   0.707107  0.707107  0.000000 /   0.707107  0.707107  0.000000 ->   0.5355266160

 K-point ( 0.000, 0.000, 0.000) | band =    23
 Transport equivalent effective mass tensor:
              0.3853803476              0.0000000022             -0.0000000010
              0.0000000022              0.3853805664              0.0000000009
             -0.0000000010              0.0000000009              0.3853794073
 Transport equivalent effective mass tensor eigenvalues:
              0.3853805664              0.3853803476              0.3853794073
 Angular average effective mass 1/(<1/m>)=   0.3569165135
 Angular average effective mass for Frohlich model (<m**0.5>)**2=   0.3579205226
 Effective masses along directions: (cart. coord. / red. coord. -> eff. mass)
    1:   1.000000  0.000000  0.000000 /   1.000000  0.000000  0.000000 ->   0.3385601225
    2:   0.000000  1.000000  0.000000 /   0.000000  1.000000  0.000000 ->   0.3385601222
    3:   0.000000  0.000000  1.000000 /   0.000000  0.000000  1.000000 ->   0.3385601226
    4:   0.577350  0.577350  0.577350 /   0.577350  0.577350  0.577350 ->   0.4485426767
    5:   0.000000  0.707107  0.707107 /   0.000000  0.707107  0.707107 ->   0.3385601267
    6:   0.707107  0.000000  0.707107 /   0.707107  0.000000  0.707107 ->   0.3385601225
    7:   0.707107  0.707107  0.000000 /   0.707107  0.707107  0.000000 ->   0.3385601292

 Angular average effective mass for Frohlich model, averaged over degenerate bands.
 Value of     (<<m**0.5>>)**2 =     5.564175E-01
 Absolute Value of <<m**0.5>> =     7.459340E-01


 END OF EFFECTIVE MASSES SECTION

================================================================================
 
 ---- first-order wavefunction calculations are completed ----
 
 
 Total localisation tensor (bohr^2) in cartesian coordinates
  WARNING : still subject to testing - especially symmetries.
      direction              matrix element
   alpha     beta       real part   imaginary part
     1        1       1.3836095199    0.0000000000
     1        2       0.0000000000    0.0000000000
     1        3       0.0000000000    0.0000000000
     2        1       0.0000000000    0.0000000000
     2        2       1.3835901921    0.0000000000
     2        3       0.0000000000    0.0000000000
     3        1       0.0000000000    0.0000000000
     3        2       0.0000000000    0.0000000000
     3        3       1.3835892753    0.0000000000
 
 respfn : d/dk was computed, but no 2DTE, so no DDB output.
 
== END DATASET(S) ==============================================================
================================================================================
  
 -outvars: echo values of variables after computation  --------
            acell      1.0000000000E+00  1.0000000000E+00  1.0000000000E+00 Bohr
              amu      1.37327000E+02  9.12240000E+01  1.59994000E+01
             ecut      4.40000000E+01 Hartree
           etotal     -3.2923679462E+01
            fcart      0.0000000000E+00  0.0000000000E+00  0.0000000000E+00
                       0.0000000000E+00  0.0000000000E+00  0.0000000000E+00
                       0.0000000000E+00  0.0000000000E+00  0.0000000000E+00
                       0.0000000000E+00  0.0000000000E+00  0.0000000000E+00
                       0.0000000000E+00  0.0000000000E+00  0.0000000000E+00
-          fftalg         512
           irdden           1
           irdwfk           1
           istwfk        1    1
              ixc     -116133
              kpt      5.00000000E-01  5.00000000E-01  5.00000000E-01
                       0.00000000E+00  0.00000000E+00  0.00000000E+00
           kptopt           0
P           mkmem           2
P          mkqmem           2
P          mk1mem           2
            natom           5
            nband          29
           nbdbuf           4
            ngfft          48      48      48
             nkpt           2
            nstep        2000
             nsym          48
           ntypat           3
              occ      2.000000  2.000000  2.000000  2.000000  2.000000  2.000000
                       2.000000  2.000000  2.000000  2.000000  2.000000  2.000000
                       2.000000  2.000000  2.000000  2.000000  2.000000  2.000000
                       2.000000  2.000000  0.000000  0.000000  0.000000  0.000000
                       0.000000  0.000000  0.000000  0.000000  0.000000
        optdriver           1
            prtwf          -1
            rfdir           1       1       1
           rfelfd           2
            rprim      7.9041550615E+00  0.0000000000E+00  0.0000000000E+00
                       0.0000000000E+00  7.9041550615E+00  0.0000000000E+00
                       0.0000000000E+00  0.0000000000E+00  7.9041550615E+00
          spgroup         221
           strten      0.0000000000E+00  0.0000000000E+00  0.0000000000E+00
                       0.0000000000E+00  0.0000000000E+00  0.0000000000E+00
           symrel      1  0  0   0  1  0   0  0  1      -1  0  0   0 -1  0   0  0 -1
                      -1  0  0   0  1  0   0  0 -1       1  0  0   0 -1  0   0  0  1
                      -1  0  0   0 -1  0   0  0  1       1  0  0   0  1  0   0  0 -1
                       1  0  0   0 -1  0   0  0 -1      -1  0  0   0  1  0   0  0  1
                       0  1  0   1  0  0   0  0  1       0 -1  0  -1  0  0   0  0 -1
                       0 -1  0   1  0  0   0  0 -1       0  1  0  -1  0  0   0  0  1
                       0 -1  0  -1  0  0   0  0  1       0  1  0   1  0  0   0  0 -1
                       0  1  0  -1  0  0   0  0 -1       0 -1  0   1  0  0   0  0  1
                       0  0  1   1  0  0   0  1  0       0  0 -1  -1  0  0   0 -1  0
                       0  0 -1   1  0  0   0 -1  0       0  0  1  -1  0  0   0  1  0
                       0  0 -1  -1  0  0   0  1  0       0  0  1   1  0  0   0 -1  0
                       0  0  1  -1  0  0   0 -1  0       0  0 -1   1  0  0   0  1  0
                       1  0  0   0  0  1   0  1  0      -1  0  0   0  0 -1   0 -1  0
                      -1  0  0   0  0  1   0 -1  0       1  0  0   0  0 -1   0  1  0
                      -1  0  0   0  0 -1   0  1  0       1  0  0   0  0  1   0 -1  0
                       1  0  0   0  0 -1   0 -1  0      -1  0  0   0  0  1   0  1  0
                       0  1  0   0  0  1   1  0  0       0 -1  0   0  0 -1  -1  0  0
                       0 -1  0   0  0  1  -1  0  0       0  1  0   0  0 -1   1  0  0
                       0 -1  0   0  0 -1   1  0  0       0  1  0   0  0  1  -1  0  0
                       0  1  0   0  0 -1  -1  0  0       0 -1  0   0  0  1   1  0  0
                       0  0  1   0  1  0   1  0  0       0  0 -1   0 -1  0  -1  0  0
                       0  0 -1   0  1  0  -1  0  0       0  0  1   0 -1  0   1  0  0
                       0  0 -1   0 -1  0   1  0  0       0  0  1   0  1  0  -1  0  0
                       0  0  1   0 -1  0  -1  0  0       0  0 -1   0  1  0   1  0  0
           tolwfr      1.00000000E-20
            typat      1  2  3  3  3
           useylm           1
              wtk        0.50000    0.50000
           xangst      0.0000000000E+00  0.0000000000E+00  0.0000000000E+00
                       2.0913493559E+00  2.0913493559E+00  2.0913493559E+00
                       2.0913493559E+00  0.0000000000E+00  2.0913493559E+00
                       2.0913493559E+00  2.0913493559E+00  0.0000000000E+00
                       0.0000000000E+00  2.0913493559E+00  2.0913493559E+00
            xcart      0.0000000000E+00  0.0000000000E+00  0.0000000000E+00
                       3.9520775308E+00  3.9520775308E+00  3.9520775308E+00
                       3.9520775308E+00  0.0000000000E+00  3.9520775308E+00
                       3.9520775308E+00  3.9520775308E+00  0.0000000000E+00
                       0.0000000000E+00  3.9520775308E+00  3.9520775308E+00
             xred      0.0000000000E+00  0.0000000000E+00  0.0000000000E+00
                       5.0000000000E-01  5.0000000000E-01  5.0000000000E-01
                       5.0000000000E-01  0.0000000000E+00  5.0000000000E-01
                       5.0000000000E-01  5.0000000000E-01  0.0000000000E+00
                       0.0000000000E+00  5.0000000000E-01  5.0000000000E-01
            znucl       56.00000   40.00000    8.00000
 
================================================================================


- Timing analysis has been suppressed with timopt=0



================================================================================

 Suggested references for the acknowledgment of ABINIT usage.

 The users of ABINIT have little formal obligations with respect to the ABINIT group
 (those specified in the GNU General Public License, http://www.gnu.org/copyleft/gpl.txt).
 However, it is common practice in the scientific literature,
 to acknowledge the efforts of people that have made the research possible.
 In this spirit, please find below suggested citations of work written by ABINIT developers,
 corresponding to implementations inside of ABINIT that you have used in the present run.
 Note also that it will be of great value to readers of publications presenting these results,
 to read papers enabling them to understand the theoretical formalism and details
 of the ABINIT implementation.
 For information on why they are suggested, see also https://docs.abinit.org/theory/acknowledgments.
-
- [1] Precise effective masses from density functional perturbation theory
- J. Laflamme Janssen, Y. Gillet, S. Ponce, A. Martin, M. Torrent, and X. Gonze. Phys. Rev. B 93, 205147 (2016)
- Comment: in case the DFPT prediction of effective masses is used.
- Strong suggestion to cite this paper in your publications.
- DOI and bibtex: see https://docs.abinit.org/theory/bibliography/#laflamme2016
-
- [2] Libxc: A library of exchange and correlation functionals for density functional theory.
- M.A.L. Marques, M.J.T. Oliveira, T. Burnus, Computer Physics Communications 183, 2227 (2012).
- Comment: to be cited when LibXC is used (negative value of ixc)
- Strong suggestion to cite this paper.
- DOI and bibtex: see https://docs.abinit.org/theory/bibliography/#marques2012
-
- [3] The Abinit project: Impact, environment and recent developments.
- Computer Phys. Comm. 248, 107042 (2020).
- X.Gonze, B. Amadon, G. Antonius, F.Arnardi, L.Baguet, J.-M.Beuken,
- J.Bieder, F.Bottin, J.Bouchet, E.Bousquet, N.Brouwer, F.Bruneval,
- G.Brunin, T.Cavignac, J.-B. Charraud, Wei Chen, M.Cote, S.Cottenier,
- J.Denier, G.Geneste, Ph.Ghosez, M.Giantomassi, Y.Gillet, O.Gingras,
- D.R.Hamann, G.Hautier, Xu He, N.Helbig, N.Holzwarth, Y.Jia, F.Jollet,
- W.Lafargue-Dit-Hauret, K.Lejaeghere, M.A.L.Marques, A.Martin, C.Martins,
- H.P.C. Miranda, F.Naccarato, K. Persson, G.Petretto, V.Planes, Y.Pouillon,
- S.Prokhorenko, F.Ricci, G.-M.Rignanese, A.H.Romero, M.M.Schmitt, M.Torrent,
- M.J.van Setten, B.Van Troeye, M.J.Verstraete, G.Zerah and J.W.Zwanzig
- Comment: the fifth generic paper describing the ABINIT project.
- Note that a version of this paper, that is not formatted for Computer Phys. Comm. 
- is available at https://www.abinit.org/sites/default/files/ABINIT20.pdf .
- The licence allows the authors to put it on the Web.
- DOI and bibtex: see https://docs.abinit.org/theory/bibliography/#gonze2020
-
- [4] First-principles responses of solids to atomic displacements and homogeneous electric fields:,
- implementation of a conjugate-gradient algorithm. X. Gonze, Phys. Rev. B55, 10337 (1997).
- Comment: Non-vanishing rfphon and/or rfelfd, in the norm-conserving case.
- DOI and bibtex: see https://docs.abinit.org/theory/bibliography/#gonze1997
-
- [5] Dynamical matrices, Born effective charges, dielectric permittivity tensors, and ,
- interatomic force constants from density-functional perturbation theory,
- X. Gonze and C. Lee, Phys. Rev. B55, 10355 (1997).
- Comment: Non-vanishing rfphon and/or rfelfd, in the norm-conserving case.
- DOI and bibtex: see https://docs.abinit.org/theory/bibliography/#gonze1997a
-
- [6] Optimized norm-conserving Vanderbilt pseudopotentials.
- D.R. Hamann, Phys. Rev. B 88, 085117 (2013).
- Comment: Some pseudopotential generated using the ONCVPSP code were used.
- DOI and bibtex: see https://docs.abinit.org/theory/bibliography/#hamann2013
-
- [7] ABINIT: Overview, and focus on selected capabilities
- J. Chem. Phys. 152, 124102 (2020).
- A. Romero, D.C. Allan, B. Amadon, G. Antonius, T. Applencourt, L.Baguet,
- J.Bieder, F.Bottin, J.Bouchet, E.Bousquet, F.Bruneval,
- G.Brunin, D.Caliste, M.Cote,
- J.Denier, C. Dreyer, Ph.Ghosez, M.Giantomassi, Y.Gillet, O.Gingras,
- D.R.Hamann, G.Hautier, F.Jollet, G. Jomard,
- A.Martin, 
- H.P.C. Miranda, F.Naccarato, G.Petretto, N.A. Pike, V.Planes,
- S.Prokhorenko, T. Rangel, F.Ricci, G.-M.Rignanese, M.Royo, M.Stengel, M.Torrent,
- M.J.van Setten, B.Van Troeye, M.J.Verstraete, J.Wiktor, J.W.Zwanziger, and X.Gonze.
- Comment: a global overview of ABINIT, with focus on selected capabilities .
- Note that a version of this paper, that is not formatted for J. Chem. Phys 
- is available at https://www.abinit.org/sites/default/files/ABINIT20_JPC.pdf .
- The licence allows the authors to put it on the Web.
- DOI and bibtex: see https://docs.abinit.org/theory/bibliography/#romero2020
-
- [8] Recent developments in the ABINIT software package.
- Computer Phys. Comm. 205, 106 (2016).
- X.Gonze, F.Jollet, F.Abreu Araujo, D.Adams, B.Amadon, T.Applencourt,
- C.Audouze, J.-M.Beuken, J.Bieder, A.Bokhanchuk, E.Bousquet, F.Bruneval
- D.Caliste, M.Cote, F.Dahm, F.Da Pieve, M.Delaveau, M.Di Gennaro,
- B.Dorado, C.Espejo, G.Geneste, L.Genovese, A.Gerossier, M.Giantomassi,
- Y.Gillet, D.R.Hamann, L.He, G.Jomard, J.Laflamme Janssen, S.Le Roux,
- A.Levitt, A.Lherbier, F.Liu, I.Lukacevic, A.Martin, C.Martins,
- M.J.T.Oliveira, S.Ponce, Y.Pouillon, T.Rangel, G.-M.Rignanese,
- A.H.Romero, B.Rousseau, O.Rubel, A.A.Shukri, M.Stankovski, M.Torrent,
- M.J.Van Setten, B.Van Troeye, M.J.Verstraete, D.Waroquier, J.Wiktor,
- B.Xu, A.Zhou, J.W.Zwanziger.
- Comment: the fourth generic paper describing the ABINIT project.
- Note that a version of this paper, that is not formatted for Computer Phys. Comm. 
- is available at https://www.abinit.org/sites/default/files/ABINIT16.pdf .
- The licence allows the authors to put it on the Web.
- DOI and bibtex: see https://docs.abinit.org/theory/bibliography/#gonze2016
-
- Proc.   0 individual time (sec): cpu=         53.6  wall=         57.7
 
================================================================================
 
 Calculation completed.
.Delivered   2 WARNINGs and   5 COMMENTs to log file.
+Overall time at end (sec) : cpu=         53.6  wall=         57.7
