
.Version 9.5.1 of ABINIT 
.(MPI version, prepared for a x86_64_linux_intel19.1 computer) 

.Copyright (C) 1998-2021 ABINIT group . 
 ABINIT comes with ABSOLUTELY NO WARRANTY.
 It is free software, and you are welcome to redistribute it
 under certain conditions (GNU General Public License,
 see ~abinit/COPYING or http://www.gnu.org/copyleft/gpl.txt).

 ABINIT is a project of the Universite Catholique de Louvain,
 Corning Inc. and other collaborators, see ~abinit/doc/developers/contributors.txt .
 Please read https://docs.abinit.org/theory/acknowledgments for suggested
 acknowledgments of the ABINIT effort.
 For more information, see https://www.abinit.org .

.Starting date : Sun 25 Apr 2021.
- ( at 17h23 )
  
- input  file    -> /scratch/users/j/a/jabreu/flow_simple2/flow/w215/t1/run.abi
- output file    -> /scratch/users/j/a/jabreu/flow_simple2/flow/w215/t1/run.abo
- root for input  files -> /scratch/users/j/a/jabreu/flow_simple2/flow/w215/t1/indata/in
- root for output files -> /scratch/users/j/a/jabreu/flow_simple2/flow/w215/t1/outdata/out
 
 
 Symmetries : space group F-4 3 m (#216); Bravais cF (face-center cubic)
================================================================================
 Values of the parameters that define the memory need of the present run (RF).
     intxc =       0      iscf =       7    lmnmax =      18     lnmax =       6
     mgfft =      40  mpssoang =       3    mqgrid =    3001     natom =       2
  nloc_mem =       1    nspden =       1   nspinor =       1    nsppol =       1
      nsym =      24    n1xccc =    2501    ntypat =       2    occopt =       1
   xclevel =       2
-    mband =          14        mffmem =           1         mkmem =           2
-   mkqmem =           2        mk1mem =           2           mpw =        2698
      nfft =       64000          nkpt =           2
================================================================================
P This job should need less than                      23.894 Mbytes of memory.
  Rough estimation (10% accuracy) of disk space for files :
_ WF disk file :      1.155 Mbytes ; DEN or POT disk file :      0.490 Mbytes.
================================================================================
 
--------------------------------------------------------------------------------
------------- Echo of variables that govern the present computation ------------
--------------------------------------------------------------------------------
-
- outvars: echo of selected default values                                      
-   iomode0 =  0 , fftalg0 =512 , wfoptalg0 =  0
-
- outvars: echo of global parameters not present in the input file              
-  max_nthreads =    0
-
 -outvars: echo values of preprocessed input variables --------
            acell      1.0000000000E+00  1.0000000000E+00  1.0000000000E+00 Bohr
              amu      9.01218200E+00  3.20660000E+01
             ecut      4.40000000E+01 Hartree
-          fftalg         512
           irdden           1
           irdwfk           1
           istwfk        1    1
              ixc     -116133
              kpt      0.00000000E+00  0.00000000E+00  0.00000000E+00
                       5.00000000E-01 -1.23259516E-32  5.00000000E-01
           kptopt           0
P           mkmem           2
P          mkqmem           2
P          mk1mem           2
            natom           2
            nband          14
           nbdbuf           4
            ngfft          40      40      40
             nkpt           2
            nstep         100
             nsym          24
           ntypat           2
              occ      2.000000  2.000000  2.000000  2.000000  2.000000  0.000000
                       0.000000  0.000000  0.000000  0.000000  0.000000  0.000000
                       0.000000  0.000000
        optdriver           1
            prtwf          -1
            rfdir           1       1       1
           rfelfd           2
            rprim      5.6008705504E+00  0.0000000000E+00  3.2336641200E+00
                       1.8669568501E+00  5.2805513956E+00  3.2336641200E+00
                       0.0000000000E+00  0.0000000000E+00  6.4673282399E+00
          spgroup         216
           symrel      1  0  0   0  1  0   0  0  1       0 -1  1   0 -1  0   1 -1  0
                      -1  0  0  -1  0  1  -1  1  0       0  1 -1   1  0 -1   0  0 -1
                      -1  0  0  -1  1  0  -1  0  1       0 -1  1   1 -1  0   0 -1  0
                       1  0  0   0  0  1   0  1  0       0  1 -1   0  0 -1   1  0 -1
                      -1  0  1  -1  1  0  -1  0  0       0 -1  0   1 -1  0   0 -1  1
                       1  0 -1   0  0 -1   0  1 -1       0  1  0   0  0  1   1  0  0
                       1  0 -1   0  1 -1   0  0 -1       0 -1  0   0 -1  1   1 -1  0
                      -1  0  1  -1  0  0  -1  1  0       0  1  0   1  0  0   0  0  1
                       0  0 -1   0  1 -1   1  0 -1       1 -1  0   0 -1  1   0 -1  0
                       0  0  1   1  0  0   0  1  0      -1  1  0  -1  0  0  -1  0  1
                       0  0  1   0  1  0   1  0  0       1 -1  0   0 -1  0   0 -1  1
                       0  0 -1   1  0 -1   0  1 -1      -1  1  0  -1  0  1  -1  0  0
           tolwfr      1.00000000E-20
            typat      1  2
           useylm           1
              wtk        0.50000    0.50000
           xangst      0.0000000000E+00  0.0000000000E+00  0.0000000000E+00
                       9.8795101451E-01  6.9858686183E-01  1.7111813525E+00
            xcart      0.0000000000E+00  0.0000000000E+00  0.0000000000E+00
                       1.8669568501E+00  1.3201378489E+00  3.2336641200E+00
             xred      0.0000000000E+00  0.0000000000E+00  0.0000000000E+00
                       2.5000000000E-01  2.5000000000E-01  2.5000000000E-01
            znucl        4.00000   16.00000
 
================================================================================
 
 chkinp: Checking input parameters for consistency.
 
================================================================================
== DATASET  1 ==================================================================
-   mpi_nproc: 1, omp_nthreads: -1 (-1 if OMP is not activated)
 

--- !DatasetInfo
iteration_state: {dtset: 1, }
dimensions: {natom: 2, nkpt: 2, mband: 14, nsppol: 1, nspinor: 1, nspden: 1, mpw: 2698, }
cutoff_energies: {ecut:  44.0, pawecutdg:  -1.0, }
electrons: {nelect:   1.00000000E+01, charge:   0.00000000E+00, occopt:   1.00000000E+00, tsmear:   1.00000000E-02, }
meta: {optdriver: 1, rfelfd: 2, }
...

 Real(R)+Recip(G) space primitive vectors, cartesian coordinates (Bohr,Bohr^-1):
 R(1)=  5.6008706  0.0000000  3.2336641  G(1)=  0.1785437 -0.0631247  0.0000000
 R(2)=  1.8669569  5.2805514  3.2336641  G(2)=  0.0000000  0.1893742  0.0000000
 R(3)=  0.0000000  0.0000000  6.4673282  G(3)= -0.0892718 -0.0631247  0.1546234
 Unit cell volume ucvol=  1.9127566E+02 bohr^3
 Angles (23,13,12)=  6.00000000E+01  6.00000000E+01  6.00000000E+01 degrees
 
 getcut: wavevector=  0.0000  0.0000  0.0000  ngfft=  40  40  40
         ecut(hartree)=     44.000   => boxcut(ratio)=   2.07130
 
--- Pseudopotential description ------------------------------------------------
- pspini: atom type   1  psp file is /scratch/users/j/a/jabreu/pseudos/PBEsol/Be.psp8
- pspatm: opening atomic psp file    /scratch/users/j/a/jabreu/pseudos/PBEsol/Be.psp8
- Be    ONCVPSP-3.3.0  r_core=   1.35684   1.10780
-  4.00000   4.00000    180112                znucl, zion, pspdat
    8 -116133    1    4       400   0.00000   pspcod,pspxc,lmax,lloc,mmax,r2well
    3.99000000000000    0.00000000000000    0.00000000000000   rchrg,fchrg,qchrg
     nproj     2     2
     extension_switch     1
  pspatm : epsatm=    3.86293307
         --- l  ekb(1:nproj) -->
             0   -7.966826   -2.672546
             1   -3.431835   -0.651830
 pspatm: atomic psp has been read  and splines computed
 
- pspini: atom type   2  psp file is /scratch/users/j/a/jabreu/pseudos/PBEsol/S.psp8
- pspatm: opening atomic psp file    /scratch/users/j/a/jabreu/pseudos/PBEsol/S.psp8
- S     ONCVPSP-3.3.0  r_core=   1.45376   1.45376   1.61851
- 16.00000   6.00000    180112                znucl, zion, pspdat
    8 -116133    2    4       600   0.00000   pspcod,pspxc,lmax,lloc,mmax,r2well
    5.99000000000000    6.00000000000000    0.00000000000000   rchrg,fchrg,qchrg
     nproj     2     2     2
     extension_switch     1
  pspatm : epsatm=    8.71840985
         --- l  ekb(1:nproj) -->
             0    6.834532    0.579453
             1    3.282851    0.896984
             2   -3.496974   -0.974265
 pspatm: atomic psp has been read  and splines computed
 
   1.25813429E+02                                ecore*ucvol(ha*bohr**3)
--------------------------------------------------------------------------------
 
-inwffil : will read wavefunctions from disk file /scratch/users/j/a/jabreu/flow_simple2/flow/w215/t1/indata/in_WFK
 
 ==>  initialize data related to q vector <== 
 
 The list of irreducible perturbations for this q vector is:
    1)    idir= 1    ipert=   3
    2)    idir= 2    ipert=   3
    3)    idir= 3    ipert=   3
 
================================================================================
 
--------------------------------------------------------------------------------
 Perturbation wavevector (in red.coord.)   0.000000  0.000000  0.000000
 Perturbation : derivative vs k along direction   1
 
 dfpt_looppert : COMMENT -
  In a d/dk calculation, iscf is set to -3 automatically.
 The set of symmetries contains only one element for this perturbation.
 symkpt : not enough symmetry to change the number of k points.
 
--------------------------------------------------------------------------------
 
-inwffil : will read wavefunctions from disk file /scratch/users/j/a/jabreu/flow_simple2/flow/w215/t1/indata/in_WFK
--------------------------------------------------------------------------------
 
 Initialisation of the first-order wave-functions :
  ireadwf=   0

--- !BeginCycle
iteration_state: {dtset: 1, }
solver: {iscf: 7, nstep: 100, nline: 4, wfoptalg: 0, }
tolerances: {tolwfr: 1.00E-20, }
...
 
     iter   2DEtotal(Ha)        deltaE(Ha) residm    vres2
-ETOT  1  -23.803593043377     -2.380E+01 1.028E-01 0.000E+00
 ETOT  2  -23.805445190013     -1.852E-03 2.922E-04 0.000E+00
 ETOT  3  -23.805446018082     -8.281E-07 2.470E-06 0.000E+00
 ETOT  4  -23.805446018892     -8.103E-10 2.244E-08 0.000E+00
 ETOT  5  -23.805446018893     -4.583E-13 2.299E-10 0.000E+00
 ETOT  6  -23.805446018893     -1.066E-14 2.578E-12 0.000E+00
 ETOT  7  -23.805446018893      1.421E-14 2.897E-14 0.000E+00
 ETOT  8  -23.805446018893     -7.105E-15 3.235E-16 0.000E+00
 ETOT  9  -23.805446018893     -3.553E-15 3.801E-18 0.000E+00
 ETOT 10  -23.805446018893      3.553E-15 4.187E-20 0.000E+00
 ETOT 11  -23.805446018893     -7.105E-15 9.266E-21 0.000E+00
 
 At SCF step   11   max residual=  9.27E-21 < tolwfr=  1.00E-20 =>converged.
================================================================================
 
 ----iterations are completed or convergence reached----
 
 dfpt_looppert: DFPT cycle converged with prtwf=-1. Will skip output of the 1st-order WFK file.
 dfpt_looppert : ek2=    2.8315953107E+01
          f-sum rule ratio=    1.7229054886E+00
 prteigrs : about to open file /scratch/users/j/a/jabreu/flow_simple2/flow/w215/t1/tmpdata/tmp_1WF1_EIG
 Expectation of eigenvalue derivatives (hartree) for nkpt=   2  k points:
  (in case of degenerate eigenvalues, averaged derivative)
 kpt#   1, nband= 14, wtk=  0.50000, kpt=  0.0000  0.0000  0.0000 (reduced coord)
  -0.00000    0.00000    0.00000    0.00000    0.00000   -0.00000   -0.00000   -0.00000
   0.00000   -0.00000   -0.00000    0.00000   -0.00000   -0.00000
 prteigrs : prtvol=0 or 1, do not print more k-points.
 
 
 Eight components of 2nd-order total energy (hartree) are
 1,2,3: 0th-order hamiltonian combined with 1st-order wavefunctions
     kin0=   4.81863581E+00 eigvalue=   1.42830872E+00  local=  -1.64047574E+00
 4,5,6: 1st-order hamiltonian combined with 1st and 0th-order wfs
     kin1=  -4.87857110E+01  Hartree=   0.00000000E+00     xc=   0.00000000E+00
 7,8,9: eventually, occupation + non-local contributions
    edocc=   1.96608851E+01     enl0=  -4.61907868E-01   enl1=   1.17481899E+00
 1-9 gives the relaxation energy (to be shifted if some occ is /=2.0)
   erelax=  -2.38054460E+01
  No Ewald or frozen-wf contrib.: the relaxation energy is the total one
 2DEtotal=   -0.2380544602E+02 Ha. Also 2DEtotal=   -0.647779129579E+03 eV
    (  non-var. 2DEtotal :   -2.3805446019E+01 Ha)
 
--------------------------------------------------------------------------------
 Perturbation wavevector (in red.coord.)   0.000000  0.000000  0.000000
 Perturbation : derivative vs k along direction   2
 The set of symmetries contains only one element for this perturbation.
 symkpt : not enough symmetry to change the number of k points.
 
--------------------------------------------------------------------------------
 
-inwffil : will read wavefunctions from disk file /scratch/users/j/a/jabreu/flow_simple2/flow/w215/t1/indata/in_WFK
--------------------------------------------------------------------------------
 
 Initialisation of the first-order wave-functions :
  ireadwf=   0

--- !BeginCycle
iteration_state: {dtset: 1, }
solver: {iscf: 7, nstep: 100, nline: 4, wfoptalg: 0, }
tolerances: {tolwfr: 1.00E-20, }
...
 
     iter   2DEtotal(Ha)        deltaE(Ha) residm    vres2
-ETOT  1  -23.803542272197     -2.380E+01 1.028E-01 0.000E+00
 ETOT  2  -23.805445174307     -1.903E-03 2.922E-04 0.000E+00
 ETOT  3  -23.805446019162     -8.449E-07 2.470E-06 0.000E+00
 ETOT  4  -23.805446019995     -8.329E-10 2.244E-08 0.000E+00
 ETOT  5  -23.805446019995     -5.045E-13 2.299E-10 0.000E+00
 ETOT  6  -23.805446019995      1.670E-13 2.578E-12 0.000E+00
 ETOT  7  -23.805446019995     -5.684E-14 2.897E-14 0.000E+00
 ETOT  8  -23.805446019995      2.842E-14 3.235E-16 0.000E+00
 ETOT  9  -23.805446019995      3.553E-15 3.801E-18 0.000E+00
 ETOT 10  -23.805446019995     -3.553E-15 4.187E-20 0.000E+00
 ETOT 11  -23.805446019995     -3.553E-15 9.630E-21 0.000E+00
 
 At SCF step   11   max residual=  9.63E-21 < tolwfr=  1.00E-20 =>converged.
================================================================================
 
 ----iterations are completed or convergence reached----
 
 dfpt_looppert: DFPT cycle converged with prtwf=-1. Will skip output of the 1st-order WFK file.
 dfpt_looppert : ek2=    2.8315953108E+01
          f-sum rule ratio=    1.7229054888E+00
 prteigrs : about to open file /scratch/users/j/a/jabreu/flow_simple2/flow/w215/t1/tmpdata/tmp_1WF1_EIG
 Expectation of eigenvalue derivatives (hartree) for nkpt=   2  k points:
  (in case of degenerate eigenvalues, averaged derivative)
 kpt#   1, nband= 14, wtk=  0.50000, kpt=  0.0000  0.0000  0.0000 (reduced coord)
  -0.00000    0.00000    0.00000    0.00000    0.00000   -0.00000   -0.00000   -0.00000
   0.00000    0.00000    0.00000   -0.00000    0.00000    0.00000
 prteigrs : prtvol=0 or 1, do not print more k-points.
 
 
 Eight components of 2nd-order total energy (hartree) are
 1,2,3: 0th-order hamiltonian combined with 1st-order wavefunctions
     kin0=   4.84115298E+00 eigvalue=   1.43530518E+00  local=  -1.64778512E+00
 4,5,6: 1st-order hamiltonian combined with 1st and 0th-order wfs
     kin1=  -4.87857110E+01  Hartree=   0.00000000E+00     xc=   0.00000000E+00
 7,8,9: eventually, occupation + non-local contributions
    edocc=   1.96411089E+01     enl0=  -4.64335916E-01   enl1=   1.17481899E+00
 1-9 gives the relaxation energy (to be shifted if some occ is /=2.0)
   erelax=  -2.38054460E+01
  No Ewald or frozen-wf contrib.: the relaxation energy is the total one
 2DEtotal=   -0.2380544602E+02 Ha. Also 2DEtotal=   -0.647779129609E+03 eV
    (  non-var. 2DEtotal :   -2.3805446020E+01 Ha)
 
--------------------------------------------------------------------------------
 Perturbation wavevector (in red.coord.)   0.000000  0.000000  0.000000
 Perturbation : derivative vs k along direction   3
 The set of symmetries contains only one element for this perturbation.
 symkpt : not enough symmetry to change the number of k points.
 
--------------------------------------------------------------------------------
 
-inwffil : will read wavefunctions from disk file /scratch/users/j/a/jabreu/flow_simple2/flow/w215/t1/indata/in_WFK
--------------------------------------------------------------------------------
 
 Initialisation of the first-order wave-functions :
  ireadwf=   0

--- !BeginCycle
iteration_state: {dtset: 1, }
solver: {iscf: 7, nstep: 100, nline: 4, wfoptalg: 0, }
tolerances: {tolwfr: 1.00E-20, }
...
 
     iter   2DEtotal(Ha)        deltaE(Ha) residm    vres2
-ETOT  1  -23.803464479548     -2.380E+01 1.028E-01 0.000E+00
 ETOT  2  -23.805445146461     -1.981E-03 2.922E-04 0.000E+00
 ETOT  3  -23.805446022601     -8.761E-07 2.470E-06 0.000E+00
 ETOT  4  -23.805446023482     -8.807E-10 2.244E-08 0.000E+00
 ETOT  5  -23.805446023483     -5.116E-13 2.299E-10 0.000E+00
 ETOT  6  -23.805446023483     -3.197E-14 2.578E-12 0.000E+00
 ETOT  7  -23.805446023483     -2.487E-14 2.897E-14 0.000E+00
 ETOT  8  -23.805446023483      3.553E-15 3.235E-16 0.000E+00
 ETOT  9  -23.805446023483      7.105E-15 3.801E-18 0.000E+00
 ETOT 10  -23.805446023483      3.553E-15 4.186E-20 0.000E+00
 ETOT 11  -23.805446023483     -1.066E-14 9.265E-21 0.000E+00
 
 At SCF step   11   max residual=  9.27E-21 < tolwfr=  1.00E-20 =>converged.
================================================================================
 
 ----iterations are completed or convergence reached----
 
 dfpt_looppert: DFPT cycle converged with prtwf=-1. Will skip output of the 1st-order WFK file.
 dfpt_looppert : ek2=    2.8315953108E+01
          f-sum rule ratio=    1.7229054891E+00
 prteigrs : about to open file /scratch/users/j/a/jabreu/flow_simple2/flow/w215/t1/tmpdata/tmp_1WF1_EIG
 Expectation of eigenvalue derivatives (hartree) for nkpt=   2  k points:
  (in case of degenerate eigenvalues, averaged derivative)
 kpt#   1, nband= 14, wtk=  0.50000, kpt=  0.0000  0.0000  0.0000 (reduced coord)
  -0.00000   -0.00000    0.00000    0.00000    0.00000    0.00000    0.00000    0.00000
  -0.00000    0.00000    0.00000   -0.00000    0.00000    0.00000
 prteigrs : prtvol=0 or 1, do not print more k-points.
 
 
 Eight components of 2nd-order total energy (hartree) are
 1,2,3: 0th-order hamiltonian combined with 1st-order wavefunctions
     kin0=   4.87719486E+00 eigvalue=   1.44650402E+00  local=  -1.65948481E+00
 4,5,6: 1st-order hamiltonian combined with 1st and 0th-order wfs
     kin1=  -4.87857110E+01  Hartree=   0.00000000E+00     xc=   0.00000000E+00
 7,8,9: eventually, occupation + non-local contributions
    edocc=   1.96094543E+01     enl0=  -4.68222339E-01   enl1=   1.17481899E+00
 1-9 gives the relaxation energy (to be shifted if some occ is /=2.0)
   erelax=  -2.38054460E+01
  No Ewald or frozen-wf contrib.: the relaxation energy is the total one
 2DEtotal=   -0.2380544602E+02 Ha. Also 2DEtotal=   -0.647779129703E+03 eV
    (  non-var. 2DEtotal :   -2.3805446023E+01 Ha)
 
 CALCULATION OF EFFECTIVE MASSES
 NOTE : Additional infos (eff. mass eigenvalues, eigenvectors and, if degenerate, average mass) are available in stdout.

 COMMENTS: 
 - At k-point ( 0.000, 0.000, 0.000), bands     3 through     5
   are DEGENERATE (effective mass tensor is therefore not defined).
   See Section IIIB Eqs. (67)-(70) and Appendix E of PRB 93 205147 (2016).
 - Angular average effective mass for Frohlich model is to be averaged over degenerate bands. See later.
 - Associated theta integrals calculated with ntheta=   1000 points.

 K-point ( 0.000, 0.000, 0.000) | band =     3
 Transport equivalent effective mass tensor:
             -0.2683033713             -0.0000000000             -0.0000000001
             -0.0000000000             -0.2683033713             -0.0000000002
             -0.0000000001             -0.0000000002             -0.2683033713
 Transport equivalent effective mass tensor eigenvalues:
             -0.2683033715             -0.2683033712             -0.2683033711
 Angular average effective mass 1/(<1/m>)=  -0.2265490259
 Angular average effective mass for Frohlich model (<m**0.5>)**2=  -0.2289766799
 Effective masses along directions: (cart. coord. / red. coord. -> eff. mass)
    1:   1.000000  0.000000  0.000000 /   0.948683  0.316228  0.000000 ->  -0.2105260405
    2:   0.000000  1.000000  0.000000 /   0.000000  1.000000  0.000000 ->  -0.1945725550
    3:   0.000000  0.000000  1.000000 /   0.408248  0.408248  0.816497 ->  -0.2169789149
    4:   0.577350  0.577350  0.577350 /   0.585539  0.688047  0.428644 ->  -0.2108526839
    5:   0.000000  0.707107  0.707107 /   0.289489  0.762222  0.578977 ->  -0.2409620908
    6:   0.707107  0.000000  0.707107 /   0.731423  0.422287  0.535439 ->  -0.2135769421
    7:   0.707107  0.707107  0.000000 /   0.616798  0.787122  0.000000 ->  -0.2984838691

 K-point ( 0.000, 0.000, 0.000) | band =     4
 Transport equivalent effective mass tensor:
             -1.1410528246             -0.0000000763             -0.0000000001
             -0.0000000763             -1.1410486029             -0.0000000001
             -0.0000000001             -0.0000000001             -1.1410307275
 Transport equivalent effective mass tensor eigenvalues:
             -1.1410528260             -1.1410486015             -1.1410307275
 Angular average effective mass 1/(<1/m>)=  -0.6394438531
 Angular average effective mass for Frohlich model (<m**0.5>)**2=  -0.6554407051
 Effective masses along directions: (cart. coord. / red. coord. -> eff. mass)
    1:   1.000000  0.000000  0.000000 /   0.948683  0.316228  0.000000 ->  -0.7734956990
    2:   0.000000  1.000000  0.000000 /   0.000000  1.000000  0.000000 ->  -1.3121572566
    3:   0.000000  0.000000  1.000000 /   0.408248  0.408248  0.816497 ->  -0.5483778243
    4:   0.577350  0.577350  0.577350 /   0.585539  0.688047  0.428644 ->  -0.7147847049
    5:   0.000000  0.707107  0.707107 /   0.289489  0.762222  0.578977 ->  -0.5626173576
    6:   0.707107  0.000000  0.707107 /   0.731423  0.422287  0.535439 ->  -0.6264026634
    7:   0.707107  0.707107  0.000000 /   0.616798  0.787122  0.000000 ->  -0.5624199026

 K-point ( 0.000, 0.000, 0.000) | band =     5
 Transport equivalent effective mass tensor:
            -13.7785265488              0.0000154796             -0.0000000021
              0.0000154796            -13.7785218417             -0.0000000032
             -0.0000000021             -0.0000000032            -13.7785034471
 Transport equivalent effective mass tensor eigenvalues:
            -13.7785398527            -13.7785085378            -13.7785034471
 Angular average effective mass 1/(<1/m>)=  -1.4582277066
 Angular average effective mass for Frohlich model (<m**0.5>)**2=  -1.7510870382
 Effective masses along directions: (cart. coord. / red. coord. -> eff. mass)
    1:   1.000000  0.000000  0.000000 /   0.948683  0.316228  0.000000 ->  -1.6107201538
    2:   0.000000  1.000000  0.000000 /   0.000000  1.000000  0.000000 ->  -1.3121572566
    3:   0.000000  0.000000  1.000000 /   0.408248  0.408248  0.816497 ->  -4.3219780061
    4:   0.577350  0.577350  0.577350 /   0.585539  0.688047  0.428644 ->  -1.9156789004
    5:   0.000000  0.707107  0.707107 /   0.289489  0.762222  0.578977 ->  -1.3582505470
    6:   0.707107  0.000000  0.707107 /   0.731423  0.422287  0.535439 ->  -2.5966746230
    7:   0.707107  0.707107  0.000000 /   0.616798  0.787122  0.000000 ->  -0.6513033876

 Angular average effective mass for Frohlich model, averaged over degenerate bands.
 Value of     (<<m**0.5>>)**2 =     7.577090E-01
 Absolute Value of <<m**0.5>> =     8.704648E-01


 K-point ( 0.500,-0.000, 0.500) | band =     6
 Effective mass tensor:
              0.3662647135             -0.1217957836              0.1491687613
             -0.1217957836              0.4523873380             -0.2109564853
              0.1491687613             -0.2109564853              0.5385099624
 Effective mass tensor eigenvalues:
              0.2801420890              0.2801420890              0.7968778359
 Angular average effective mass 1/(<1/m>)=   0.3573925317
 Angular average effective mass for Frohlich model (<m**0.5>)**2=   0.3785868077
 Effective masses along directions: (cart. coord. / red. coord. -> eff. mass)
    1:   1.000000  0.000000  0.000000 /   0.948683  0.316228  0.000000 ->   0.3140870697
    2:   0.000000  1.000000  0.000000 /   0.000000  1.000000  0.000000 ->   0.3573925317
    3:   0.000000  0.000000  1.000000 /   0.408248  0.408248  0.816497 ->   0.4145494739
    4:   0.577350  0.577350  0.577350 /   0.585539  0.688047  0.428644 ->   0.2988387806
    5:   0.000000  0.707107  0.707107 /   0.289489  0.762222  0.578977 ->   0.2816797504
    6:   0.707107  0.000000  0.707107 /   0.731423  0.422287  0.535439 ->   0.4695184146
    7:   0.707107  0.707107  0.000000 /   0.616798  0.787122  0.000000 ->   0.2827636973

 END OF EFFECTIVE MASSES SECTION

================================================================================
 
 ---- first-order wavefunction calculations are completed ----
 
 
 Total localisation tensor (bohr^2) in cartesian coordinates
  WARNING : still subject to testing - especially symmetries.
      direction              matrix element
   alpha     beta       real part   imaginary part
     1        1       3.6046819878    0.0000000000
     1        2       1.0195580311    0.0000000000
     1        3       2.4973969392    0.0000000000
     2        1       1.0195580311    0.0000000000
     2        2       2.8837455903    0.0000000000
     2        3       1.7659263111    0.0000000000
     3        1       2.4973969392    0.0000000000
     3        2       1.7659263111    0.0000000000
     3        3       6.4884275790    0.0000000000
 
 respfn : d/dk was computed, but no 2DTE, so no DDB output.
 
== END DATASET(S) ==============================================================
================================================================================
  
 -outvars: echo values of variables after computation  --------
            acell      1.0000000000E+00  1.0000000000E+00  1.0000000000E+00 Bohr
              amu      9.01218200E+00  3.20660000E+01
             ecut      4.40000000E+01 Hartree
           etotal     -2.3805446023E+01
            fcart      0.0000000000E+00  0.0000000000E+00  0.0000000000E+00
                       0.0000000000E+00  0.0000000000E+00  0.0000000000E+00
-          fftalg         512
           irdden           1
           irdwfk           1
           istwfk        1    1
              ixc     -116133
              kpt      0.00000000E+00  0.00000000E+00  0.00000000E+00
                       5.00000000E-01 -1.23259516E-32  5.00000000E-01
           kptopt           0
P           mkmem           2
P          mkqmem           2
P          mk1mem           2
            natom           2
            nband          14
           nbdbuf           4
            ngfft          40      40      40
             nkpt           2
            nstep         100
             nsym          24
           ntypat           2
              occ      2.000000  2.000000  2.000000  2.000000  2.000000  0.000000
                       0.000000  0.000000  0.000000  0.000000  0.000000  0.000000
                       0.000000  0.000000
        optdriver           1
            prtwf          -1
            rfdir           1       1       1
           rfelfd           2
            rprim      5.6008705504E+00  0.0000000000E+00  3.2336641200E+00
                       1.8669568501E+00  5.2805513956E+00  3.2336641200E+00
                       0.0000000000E+00  0.0000000000E+00  6.4673282399E+00
          spgroup         216
           strten      0.0000000000E+00  0.0000000000E+00  0.0000000000E+00
                       0.0000000000E+00  0.0000000000E+00  0.0000000000E+00
           symrel      1  0  0   0  1  0   0  0  1       0 -1  1   0 -1  0   1 -1  0
                      -1  0  0  -1  0  1  -1  1  0       0  1 -1   1  0 -1   0  0 -1
                      -1  0  0  -1  1  0  -1  0  1       0 -1  1   1 -1  0   0 -1  0
                       1  0  0   0  0  1   0  1  0       0  1 -1   0  0 -1   1  0 -1
                      -1  0  1  -1  1  0  -1  0  0       0 -1  0   1 -1  0   0 -1  1
                       1  0 -1   0  0 -1   0  1 -1       0  1  0   0  0  1   1  0  0
                       1  0 -1   0  1 -1   0  0 -1       0 -1  0   0 -1  1   1 -1  0
                      -1  0  1  -1  0  0  -1  1  0       0  1  0   1  0  0   0  0  1
                       0  0 -1   0  1 -1   1  0 -1       1 -1  0   0 -1  1   0 -1  0
                       0  0  1   1  0  0   0  1  0      -1  1  0  -1  0  0  -1  0  1
                       0  0  1   0  1  0   1  0  0       1 -1  0   0 -1  0   0 -1  1
                       0  0 -1   1  0 -1   0  1 -1      -1  1  0  -1  0  1  -1  0  0
           tolwfr      1.00000000E-20
            typat      1  2
           useylm           1
              wtk        0.50000    0.50000
           xangst      0.0000000000E+00  0.0000000000E+00  0.0000000000E+00
                       9.8795101451E-01  6.9858686183E-01  1.7111813525E+00
            xcart      0.0000000000E+00  0.0000000000E+00  0.0000000000E+00
                       1.8669568501E+00  1.3201378489E+00  3.2336641200E+00
             xred      0.0000000000E+00  0.0000000000E+00  0.0000000000E+00
                       2.5000000000E-01  2.5000000000E-01  2.5000000000E-01
            znucl        4.00000   16.00000
 
================================================================================


- Timing analysis has been suppressed with timopt=0



================================================================================

 Suggested references for the acknowledgment of ABINIT usage.

 The users of ABINIT have little formal obligations with respect to the ABINIT group
 (those specified in the GNU General Public License, http://www.gnu.org/copyleft/gpl.txt).
 However, it is common practice in the scientific literature,
 to acknowledge the efforts of people that have made the research possible.
 In this spirit, please find below suggested citations of work written by ABINIT developers,
 corresponding to implementations inside of ABINIT that you have used in the present run.
 Note also that it will be of great value to readers of publications presenting these results,
 to read papers enabling them to understand the theoretical formalism and details
 of the ABINIT implementation.
 For information on why they are suggested, see also https://docs.abinit.org/theory/acknowledgments.
-
- [1] Precise effective masses from density functional perturbation theory
- J. Laflamme Janssen, Y. Gillet, S. Ponce, A. Martin, M. Torrent, and X. Gonze. Phys. Rev. B 93, 205147 (2016)
- Comment: in case the DFPT prediction of effective masses is used.
- Strong suggestion to cite this paper in your publications.
- DOI and bibtex: see https://docs.abinit.org/theory/bibliography/#laflamme2016
-
- [2] Libxc: A library of exchange and correlation functionals for density functional theory.
- M.A.L. Marques, M.J.T. Oliveira, T. Burnus, Computer Physics Communications 183, 2227 (2012).
- Comment: to be cited when LibXC is used (negative value of ixc)
- Strong suggestion to cite this paper.
- DOI and bibtex: see https://docs.abinit.org/theory/bibliography/#marques2012
-
- [3] The Abinit project: Impact, environment and recent developments.
- Computer Phys. Comm. 248, 107042 (2020).
- X.Gonze, B. Amadon, G. Antonius, F.Arnardi, L.Baguet, J.-M.Beuken,
- J.Bieder, F.Bottin, J.Bouchet, E.Bousquet, N.Brouwer, F.Bruneval,
- G.Brunin, T.Cavignac, J.-B. Charraud, Wei Chen, M.Cote, S.Cottenier,
- J.Denier, G.Geneste, Ph.Ghosez, M.Giantomassi, Y.Gillet, O.Gingras,
- D.R.Hamann, G.Hautier, Xu He, N.Helbig, N.Holzwarth, Y.Jia, F.Jollet,
- W.Lafargue-Dit-Hauret, K.Lejaeghere, M.A.L.Marques, A.Martin, C.Martins,
- H.P.C. Miranda, F.Naccarato, K. Persson, G.Petretto, V.Planes, Y.Pouillon,
- S.Prokhorenko, F.Ricci, G.-M.Rignanese, A.H.Romero, M.M.Schmitt, M.Torrent,
- M.J.van Setten, B.Van Troeye, M.J.Verstraete, G.Zerah and J.W.Zwanzig
- Comment: the fifth generic paper describing the ABINIT project.
- Note that a version of this paper, that is not formatted for Computer Phys. Comm. 
- is available at https://www.abinit.org/sites/default/files/ABINIT20.pdf .
- The licence allows the authors to put it on the Web.
- DOI and bibtex: see https://docs.abinit.org/theory/bibliography/#gonze2020
-
- [4] First-principles responses of solids to atomic displacements and homogeneous electric fields:,
- implementation of a conjugate-gradient algorithm. X. Gonze, Phys. Rev. B55, 10337 (1997).
- Comment: Non-vanishing rfphon and/or rfelfd, in the norm-conserving case.
- DOI and bibtex: see https://docs.abinit.org/theory/bibliography/#gonze1997
-
- [5] Dynamical matrices, Born effective charges, dielectric permittivity tensors, and ,
- interatomic force constants from density-functional perturbation theory,
- X. Gonze and C. Lee, Phys. Rev. B55, 10355 (1997).
- Comment: Non-vanishing rfphon and/or rfelfd, in the norm-conserving case.
- DOI and bibtex: see https://docs.abinit.org/theory/bibliography/#gonze1997a
-
- [6] Optimized norm-conserving Vanderbilt pseudopotentials.
- D.R. Hamann, Phys. Rev. B 88, 085117 (2013).
- Comment: Some pseudopotential generated using the ONCVPSP code were used.
- DOI and bibtex: see https://docs.abinit.org/theory/bibliography/#hamann2013
-
- [7] ABINIT: Overview, and focus on selected capabilities
- J. Chem. Phys. 152, 124102 (2020).
- A. Romero, D.C. Allan, B. Amadon, G. Antonius, T. Applencourt, L.Baguet,
- J.Bieder, F.Bottin, J.Bouchet, E.Bousquet, F.Bruneval,
- G.Brunin, D.Caliste, M.Cote,
- J.Denier, C. Dreyer, Ph.Ghosez, M.Giantomassi, Y.Gillet, O.Gingras,
- D.R.Hamann, G.Hautier, F.Jollet, G. Jomard,
- A.Martin, 
- H.P.C. Miranda, F.Naccarato, G.Petretto, N.A. Pike, V.Planes,
- S.Prokhorenko, T. Rangel, F.Ricci, G.-M.Rignanese, M.Royo, M.Stengel, M.Torrent,
- M.J.van Setten, B.Van Troeye, M.J.Verstraete, J.Wiktor, J.W.Zwanziger, and X.Gonze.
- Comment: a global overview of ABINIT, with focus on selected capabilities .
- Note that a version of this paper, that is not formatted for J. Chem. Phys 
- is available at https://www.abinit.org/sites/default/files/ABINIT20_JPC.pdf .
- The licence allows the authors to put it on the Web.
- DOI and bibtex: see https://docs.abinit.org/theory/bibliography/#romero2020
-
- [8] Recent developments in the ABINIT software package.
- Computer Phys. Comm. 205, 106 (2016).
- X.Gonze, F.Jollet, F.Abreu Araujo, D.Adams, B.Amadon, T.Applencourt,
- C.Audouze, J.-M.Beuken, J.Bieder, A.Bokhanchuk, E.Bousquet, F.Bruneval
- D.Caliste, M.Cote, F.Dahm, F.Da Pieve, M.Delaveau, M.Di Gennaro,
- B.Dorado, C.Espejo, G.Geneste, L.Genovese, A.Gerossier, M.Giantomassi,
- Y.Gillet, D.R.Hamann, L.He, G.Jomard, J.Laflamme Janssen, S.Le Roux,
- A.Levitt, A.Lherbier, F.Liu, I.Lukacevic, A.Martin, C.Martins,
- M.J.T.Oliveira, S.Ponce, Y.Pouillon, T.Rangel, G.-M.Rignanese,
- A.H.Romero, B.Rousseau, O.Rubel, A.A.Shukri, M.Stankovski, M.Torrent,
- M.J.Van Setten, B.Van Troeye, M.J.Verstraete, D.Waroquier, J.Wiktor,
- B.Xu, A.Zhou, J.W.Zwanziger.
- Comment: the fourth generic paper describing the ABINIT project.
- Note that a version of this paper, that is not formatted for Computer Phys. Comm. 
- is available at https://www.abinit.org/sites/default/files/ABINIT16.pdf .
- The licence allows the authors to put it on the Web.
- DOI and bibtex: see https://docs.abinit.org/theory/bibliography/#gonze2016
-
- Proc.   0 individual time (sec): cpu=         13.8  wall=         18.5
 
================================================================================
 
 Calculation completed.
.Delivered  14 WARNINGs and   9 COMMENTs to log file.
+Overall time at end (sec) : cpu=         13.8  wall=         18.5
