
.Version 9.5.1 of ABINIT 
.(MPI version, prepared for a x86_64_linux_intel19.1 computer) 

.Copyright (C) 1998-2021 ABINIT group . 
 ABINIT comes with ABSOLUTELY NO WARRANTY.
 It is free software, and you are welcome to redistribute it
 under certain conditions (GNU General Public License,
 see ~abinit/COPYING or http://www.gnu.org/copyleft/gpl.txt).

 ABINIT is a project of the Universite Catholique de Louvain,
 Corning Inc. and other collaborators, see ~abinit/doc/developers/contributors.txt .
 Please read https://docs.abinit.org/theory/acknowledgments for suggested
 acknowledgments of the ABINIT effort.
 For more information, see https://www.abinit.org .

.Starting date : Wed 19 May 2021.
- ( at 01h20 )
  
- input  file    -> /scratch/users/j/a/jabreu/flow_simple_8atoms/flow/w410/t1/run.abi
- output file    -> /scratch/users/j/a/jabreu/flow_simple_8atoms/flow/w410/t1/run.abo
- root for input  files -> /scratch/users/j/a/jabreu/flow_simple_8atoms/flow/w410/t1/indata/in
- root for output files -> /scratch/users/j/a/jabreu/flow_simple_8atoms/flow/w410/t1/outdata/out
 
 
 Symmetries : space group Cm c m (# 63); Bravais oC (1-face-center ortho.)
================================================================================
 Values of the parameters that define the memory need of the present run (RF).
     intxc =       0      iscf =       7    lmnmax =      32     lnmax =       8
     mgfft =      80  mpssoang =       4    mqgrid =    3136     natom =       8
  nloc_mem =       1    nspden =       1   nspinor =       1    nsppol =       1
      nsym =       8    n1xccc =    2501    ntypat =       3    occopt =       1
   xclevel =       2
-    mband =          49        mffmem =           1         mkmem =           2
-   mkqmem =           2        mk1mem =           2           mpw =       17267
      nfft =      409600          nkpt =           2
================================================================================
P This job should need less than                     416.305 Mbytes of memory.
  Rough estimation (10% accuracy) of disk space for files :
_ WF disk file :     25.822 Mbytes ; DEN or POT disk file :      3.127 Mbytes.
================================================================================
 
--------------------------------------------------------------------------------
------------- Echo of variables that govern the present computation ------------
--------------------------------------------------------------------------------
-
- outvars: echo of selected default values                                      
-   iomode0 =  0 , fftalg0 =512 , wfoptalg0 =  0
-
- outvars: echo of global parameters not present in the input file              
-  max_nthreads =    0
-
 -outvars: echo values of preprocessed input variables --------
            acell      1.0000000000E+00  1.0000000000E+00  1.0000000000E+00 Bohr
              amu      1.32905430E+02  6.35460000E+01  1.59994000E+01
             ecut      4.60000000E+01 Hartree
-          fftalg         512
           irdden           1
           irdwfk           1
           istwfk        1    0
              ixc     -116133
              kpt      0.00000000E+00  0.00000000E+00  0.00000000E+00
                       0.00000000E+00  0.00000000E+00  4.72222222E-01
           kptopt           0
P           mkmem           2
P          mkqmem           2
P          mk1mem           2
            natom           8
            nband          49
           nbdbuf           4
            ngfft          80      80      64
             nkpt           2
            nstep        2000
             nsym           8
           ntypat           3
              occ      2.000000  2.000000  2.000000  2.000000  2.000000  2.000000
                       2.000000  2.000000  2.000000  2.000000  2.000000  2.000000
                       2.000000  2.000000  2.000000  2.000000  2.000000  2.000000
                       2.000000  2.000000  2.000000  2.000000  2.000000  2.000000
                       2.000000  2.000000  2.000000  2.000000  2.000000  2.000000
                       2.000000  2.000000  2.000000  2.000000  2.000000  2.000000
                       2.000000  2.000000  2.000000  2.000000  0.000000  0.000000
                       0.000000  0.000000  0.000000  0.000000  0.000000  0.000000
                       0.000000
        optdriver           1
            prtwf          -1
            rfdir           1       1       1
           rfelfd           2
            rprim      1.2343963450E+01  0.0000000000E+00  0.0000000000E+00
                      -8.3258228707E+00  9.1134026128E+00  0.0000000000E+00
                       0.0000000000E+00  0.0000000000E+00  1.0268487603E+01
          spgroup          63
           symrel      1  0  0   0  1  0   0  0  1      -1  0  0   0 -1  0   0  0 -1
                       0  1  0   1  0  0   0  0 -1       0 -1  0  -1  0  0   0  0  1
                      -1  0  0   0 -1  0   0  0  1       1  0  0   0  1  0   0  0 -1
                       0 -1  0  -1  0  0   0  0 -1       0  1  0   1  0  0   0  0  1
            tnons      0.0000000  0.0000000  0.0000000     0.0000000  0.0000000  0.0000000
                       0.0000000  0.0000000  0.0000000     0.0000000  0.0000000  0.0000000
                       0.0000000  0.0000000  0.5000000     0.0000000  0.0000000  0.5000000
                       0.0000000  0.0000000  0.5000000     0.0000000  0.0000000  0.5000000
           tolwfr      1.00000000E-20
            typat      1  1  2  2  3  3  3  3
           useylm           1
              wtk        0.50000    0.50000
           xangst     -9.5887355707E-01  3.3028236976E+00  4.0753872047E+00
                       3.0851819726E+00  1.5197812578E+00  1.3584624016E+00
                      -4.3845941491E+00  4.8132394566E+00  4.0753872047E+00
                       6.5109025646E+00  9.3654988234E-03  1.3584624016E+00
                      -3.2977636595E+00  4.3340509604E+00  2.0165015889E-02
                       5.4240720750E+00  4.8855399501E-01  5.4136845904E+00
                       5.4240720750E+00  4.8855399501E-01  2.7370898190E+00
                      -3.2977636595E+00  4.3340509604E+00  2.6967597872E+00
            xcart     -1.8120084189E+00  6.2414322536E+00  7.7013657023E+00
                       5.8301489983E+00  2.8719703592E+00  2.5671219008E+00
                      -8.2856821457E+00  9.0957043849E+00  7.7013657023E+00
                       1.2303822725E+01  1.7698227874E-02  2.5671219008E+00
                      -6.2318701675E+00  8.1901693611E+00  3.8106357495E-02
                       1.0250010747E+01  9.2323325169E-01  1.0230381246E+01
                       1.0250010747E+01  9.2323325169E-01  5.1723501590E+00
                      -6.2318701675E+00  8.1901693611E+00  5.0961374441E+00
             xred      3.1513700000E-01  6.8486300000E-01  7.5000000000E-01
                       6.8486300000E-01  3.1513700000E-01  2.5000000000E-01
                       1.9420000000E-03  9.9805800000E-01  7.5000000000E-01
                       9.9805800000E-01  1.9420000000E-03  2.5000000000E-01
                       1.0130500000E-01  8.9869500000E-01  3.7110000000E-03
                       8.9869500000E-01  1.0130500000E-01  9.9628900000E-01
                       8.9869500000E-01  1.0130500000E-01  5.0371100000E-01
                       1.0130500000E-01  8.9869500000E-01  4.9628900000E-01
            znucl       55.00000   29.00000    8.00000
 
================================================================================
 
 chkinp: Checking input parameters for consistency.
 
================================================================================
== DATASET  1 ==================================================================
-   mpi_nproc: 1, omp_nthreads: -1 (-1 if OMP is not activated)
 

--- !DatasetInfo
iteration_state: {dtset: 1, }
dimensions: {natom: 8, nkpt: 2, mband: 49, nsppol: 1, nspinor: 1, nspden: 1, mpw: 17267, }
cutoff_energies: {ecut:  46.0, pawecutdg:  -1.0, }
electrons: {nelect:   8.00000000E+01, charge:   0.00000000E+00, occopt:   1.00000000E+00, tsmear:   1.00000000E-02, }
meta: {optdriver: 1, rfelfd: 2, }
...

 Real(R)+Recip(G) space primitive vectors, cartesian coordinates (Bohr,Bohr^-1):
 R(1)= 12.3439635  0.0000000  0.0000000  G(1)=  0.0810113  0.0740103  0.0000000
 R(2)= -8.3258229  9.1134026  0.0000000  G(2)=  0.0000000  0.1097285  0.0000000
 R(3)=  0.0000000  0.0000000 10.2684876  G(3)=  0.0000000  0.0000000  0.0973853
 Unit cell volume ucvol=  1.1551587E+03 bohr^3
 Angles (23,13,12)=  9.00000000E+01  9.00000000E+01  1.32414200E+02 degrees
 
 getcut: wavevector=  0.0000  0.0000  0.0000  ngfft=  80  80  64
         ecut(hartree)=     46.000   => boxcut(ratio)=   2.04141
 
--- Pseudopotential description ------------------------------------------------
- pspini: atom type   1  psp file is /scratch/users/j/a/jabreu/pseudos/PBEsol/Cs.psp8
- pspatm: opening atomic psp file    /scratch/users/j/a/jabreu/pseudos/PBEsol/Cs.psp8
- Cs    ONCVPSP-3.3.0  r_core=   2.27353   1.85623   2.01788   1.90105
- 55.00000   9.00000    180112                znucl, zion, pspdat
    8 -116133    3    4       600   0.00000   pspcod,pspxc,lmax,lloc,mmax,r2well
    5.99000000000000    5.00000000000000    0.00000000000000   rchrg,fchrg,qchrg
     nproj     2     2     2     2
     extension_switch     1
  pspatm : epsatm=   22.12462445
         --- l  ekb(1:nproj) -->
             0    6.214110    0.767882
             1    6.311966    0.793598
             2    3.769790    0.913105
             3   -9.247129   -2.432478
 pspatm: atomic psp has been read  and splines computed
 
- pspini: atom type   2  psp file is /scratch/users/j/a/jabreu/pseudos/PBEsol/Cu.psp8
- pspatm: opening atomic psp file    /scratch/users/j/a/jabreu/pseudos/PBEsol/Cu.psp8
- Cu    ONCVPSP-3.3.0  r_core=   1.26204   1.45626   1.76249
- 29.00000  19.00000    180112                znucl, zion, pspdat
    8 -116133    2    4       600   0.00000   pspcod,pspxc,lmax,lloc,mmax,r2well
    5.99000000000000    3.50000000000000    0.00000000000000   rchrg,fchrg,qchrg
     nproj     2     2     2
     extension_switch     1
  pspatm : epsatm=   21.63488701
         --- l  ekb(1:nproj) -->
             0    5.008230   -0.401634
             1   -3.496700   -0.765945
             2   -6.895851   -2.521180
 pspatm: atomic psp has been read  and splines computed
 
- pspini: atom type   3  psp file is /scratch/users/j/a/jabreu/pseudos/PBEsol/O.psp8
- pspatm: opening atomic psp file    /scratch/users/j/a/jabreu/pseudos/PBEsol/O.psp8
- O     ONCVPSP-3.3.0  r_core=   1.35509   1.45563   1.26150
-  8.00000   6.00000    180112                znucl, zion, pspdat
    8 -116133    2    4       600   0.00000   pspcod,pspxc,lmax,lloc,mmax,r2well
    5.99000000000000    4.00000000000000    0.00000000000000   rchrg,fchrg,qchrg
     nproj     2     2     1
     extension_switch     1
  pspatm : epsatm=    6.22910522
         --- l  ekb(1:nproj) -->
             0    6.050032    0.820363
             1   -4.739617   -1.153841
             2   -1.335834
 pspatm: atomic psp has been read  and splines computed
 
   8.99483550E+03                                ecore*ucvol(ha*bohr**3)
--------------------------------------------------------------------------------
 
-inwffil : will read wavefunctions from disk file /scratch/users/j/a/jabreu/flow_simple_8atoms/flow/w410/t1/indata/in_WFK
 
 ==>  initialize data related to q vector <== 
 
 The list of irreducible perturbations for this q vector is:
    1)    idir= 1    ipert=   9
    2)    idir= 2    ipert=   9
    3)    idir= 3    ipert=   9
 
================================================================================
 
--------------------------------------------------------------------------------
 Perturbation wavevector (in red.coord.)   0.000000  0.000000  0.000000
 Perturbation : derivative vs k along direction   1
 
 dfpt_looppert : COMMENT -
  In a d/dk calculation, iscf is set to -3 automatically.
 The set of symmetries contains only one element for this perturbation.
 symkpt : not enough symmetry to change the number of k points.
 
--------------------------------------------------------------------------------
 
-inwffil : will read wavefunctions from disk file /scratch/users/j/a/jabreu/flow_simple_8atoms/flow/w410/t1/indata/in_WFK
--------------------------------------------------------------------------------
 
 Initialisation of the first-order wave-functions :
  ireadwf=   0

--- !BeginCycle
iteration_state: {dtset: 1, }
solver: {iscf: 7, nstep: 2000, nline: 4, wfoptalg: 0, }
tolerances: {tolwfr: 1.00E-20, }
...
 
     iter   2DEtotal(Ha)        deltaE(Ha) residm    vres2
-ETOT  1  -42.247525573824     -4.225E+01 4.403E-02 0.000E+00
 ETOT  2  -42.348105396338     -1.006E-01 1.944E-03 0.000E+00
 ETOT  3  -42.350189414636     -2.084E-03 1.426E-04 0.000E+00
 ETOT  4  -42.350267178874     -7.776E-05 2.154E-05 0.000E+00
 ETOT  5  -42.350270714538     -3.536E-06 3.358E-06 0.000E+00
 ETOT  6  -42.350270892247     -1.777E-07 3.977E-07 0.000E+00
 ETOT  7  -42.350270901741     -9.493E-09 7.811E-08 0.000E+00
 ETOT  8  -42.350270902270     -5.293E-10 9.371E-09 0.000E+00
 ETOT  9  -42.350270902301     -3.066E-11 1.795E-09 0.000E+00
 ETOT 10  -42.350270902302     -1.812E-12 2.231E-10 0.000E+00
 ETOT 11  -42.350270902303     -1.421E-13 4.152E-11 0.000E+00
 ETOT 12  -42.350270902303      2.842E-14 5.379E-12 0.000E+00
 ETOT 13  -42.350270902303     -1.421E-14 9.698E-13 0.000E+00
 ETOT 14  -42.350270902303      4.263E-14 1.310E-13 0.000E+00
 ETOT 15  -42.350270902303     -7.105E-15 2.288E-14 0.000E+00
 ETOT 16  -42.350270902303      0.000E+00 3.215E-15 0.000E+00
 ETOT 17  -42.350270902303      2.132E-14 5.450E-16 0.000E+00
 ETOT 18  -42.350270902303      0.000E+00 7.944E-17 0.000E+00
 ETOT 19  -42.350270902303      0.000E+00 1.310E-17 0.000E+00
 ETOT 20  -42.350270902303      0.000E+00 1.973E-18 0.000E+00
 ETOT 21  -42.350270902303      0.000E+00 3.172E-19 0.000E+00
 ETOT 22  -42.350270902303      0.000E+00 4.919E-20 0.000E+00
 ETOT 23  -42.350270902303      0.000E+00 9.886E-21 0.000E+00
 
 At SCF step   23   max residual=  9.89E-21 < tolwfr=  1.00E-20 =>converged.
================================================================================
 
 ----iterations are completed or convergence reached----
 
 dfpt_looppert: DFPT cycle converged with prtwf=-1. Will skip output of the 1st-order WFK file.
 dfpt_looppert : ek2=    7.6053394961E+01
          f-sum rule ratio=    9.9570538027E-01
 prteigrs : about to open file /scratch/users/j/a/jabreu/flow_simple_8atoms/flow/w410/t1/tmpdata/tmp_1WF1_EIG
 Expectation of eigenvalue derivatives (hartree) for nkpt=   2  k points:
  (in case of degenerate eigenvalues, averaged derivative)
 kpt#   1, nband= 49, wtk=  0.50000, kpt=  0.0000  0.0000  0.0000 (reduced coord)
  -0.00000   -0.00000   -0.00000    0.00000   -0.00000    0.00000   -0.00000    0.00000
  -0.00000   -0.00000    0.00000   -0.00000   -0.00000   -0.00000   -0.00000    0.00000
   0.00000   -0.00000   -0.00000   -0.00000   -0.00000    0.00000    0.00000   -0.00000
  -0.00000   -0.00000    0.00000    0.00000    0.00000   -0.00000   -0.00000   -0.00000
  -0.00000   -0.00000    0.00000   -0.00000   -0.00000   -0.00000   -0.00000   -0.00000
  -0.00000    0.00000    0.00000    0.00000    0.00000    0.00000    0.00000    0.00000
   0.00000
 prteigrs : prtvol=0 or 1, do not print more k-points.
 
 
 Eight components of 2nd-order total energy (hartree) are
 1,2,3: 0th-order hamiltonian combined with 1st-order wavefunctions
     kin0=   6.15941789E+01 eigvalue=   1.79299289E+00  local=  -2.67664592E+01
 4,5,6: 1st-order hamiltonian combined with 1st and 0th-order wfs
     kin1=  -7.57267745E+01  Hartree=   0.00000000E+00     xc=   0.00000000E+00
 7,8,9: eventually, occupation + non-local contributions
    edocc=   5.73540168E+00     enl0=  -5.84338307E-03   enl1=  -8.97376725E+00
 1-9 gives the relaxation energy (to be shifted if some occ is /=2.0)
   erelax=  -4.23502709E+01
  No Ewald or frozen-wf contrib.: the relaxation energy is the total one
 2DEtotal=   -0.4235027090E+02 Ha. Also 2DEtotal=   -0.115240947810E+04 eV
    (  non-var. 2DEtotal :   -4.2350270902E+01 Ha)
 
--------------------------------------------------------------------------------
 Perturbation wavevector (in red.coord.)   0.000000  0.000000  0.000000
 Perturbation : derivative vs k along direction   2
 The set of symmetries contains only one element for this perturbation.
 symkpt : not enough symmetry to change the number of k points.
 
--------------------------------------------------------------------------------
 
-inwffil : will read wavefunctions from disk file /scratch/users/j/a/jabreu/flow_simple_8atoms/flow/w410/t1/indata/in_WFK
--------------------------------------------------------------------------------
 
 Initialisation of the first-order wave-functions :
  ireadwf=   0

--- !BeginCycle
iteration_state: {dtset: 1, }
solver: {iscf: 7, nstep: 2000, nline: 4, wfoptalg: 0, }
tolerances: {tolwfr: 1.00E-20, }
...
 
     iter   2DEtotal(Ha)        deltaE(Ha) residm    vres2
-ETOT  1  -42.247525305652     -4.225E+01 4.403E-02 0.000E+00
 ETOT  2  -42.348105070784     -1.006E-01 1.944E-03 0.000E+00
 ETOT  3  -42.350189084702     -2.084E-03 1.426E-04 0.000E+00
 ETOT  4  -42.350266848759     -7.776E-05 2.154E-05 0.000E+00
 ETOT  5  -42.350270384415     -3.536E-06 3.358E-06 0.000E+00
 ETOT  6  -42.350270562124     -1.777E-07 3.977E-07 0.000E+00
 ETOT  7  -42.350270571617     -9.493E-09 7.811E-08 0.000E+00
 ETOT  8  -42.350270572146     -5.293E-10 9.371E-09 0.000E+00
 ETOT  9  -42.350270572177     -3.058E-11 1.795E-09 0.000E+00
 ETOT 10  -42.350270572179     -1.840E-12 2.231E-10 0.000E+00
 ETOT 11  -42.350270572179     -1.350E-13 4.152E-11 0.000E+00
 ETOT 12  -42.350270572179      1.421E-14 5.379E-12 0.000E+00
 ETOT 13  -42.350270572179     -3.553E-14 9.698E-13 0.000E+00
 ETOT 14  -42.350270572179      2.132E-14 1.310E-13 0.000E+00
 ETOT 15  -42.350270572179      0.000E+00 2.288E-14 0.000E+00
 ETOT 16  -42.350270572179      4.263E-14 3.215E-15 0.000E+00
 ETOT 17  -42.350270572179     -2.842E-14 5.450E-16 0.000E+00
 ETOT 18  -42.350270572179      1.421E-14 7.944E-17 0.000E+00
 ETOT 19  -42.350270572179     -1.421E-14 1.310E-17 0.000E+00
 ETOT 20  -42.350270572179     -7.105E-15 1.973E-18 0.000E+00
 ETOT 21  -42.350270572179     -7.105E-15 3.172E-19 0.000E+00
 ETOT 22  -42.350270572179      7.105E-15 4.919E-20 0.000E+00
 ETOT 23  -42.350270572179      7.105E-15 9.886E-21 0.000E+00
 
 At SCF step   23   max residual=  9.89E-21 < tolwfr=  1.00E-20 =>converged.
================================================================================
 
 ----iterations are completed or convergence reached----
 
 dfpt_looppert: DFPT cycle converged with prtwf=-1. Will skip output of the 1st-order WFK file.
 dfpt_looppert : ek2=    7.6053394961E+01
          f-sum rule ratio=    9.9570536889E-01
 prteigrs : about to open file /scratch/users/j/a/jabreu/flow_simple_8atoms/flow/w410/t1/tmpdata/tmp_1WF1_EIG
 Expectation of eigenvalue derivatives (hartree) for nkpt=   2  k points:
  (in case of degenerate eigenvalues, averaged derivative)
 kpt#   1, nband= 49, wtk=  0.50000, kpt=  0.0000  0.0000  0.0000 (reduced coord)
  -0.00000   -0.00000   -0.00000    0.00000    0.00000   -0.00000   -0.00000    0.00000
  -0.00000   -0.00000    0.00000   -0.00000    0.00000   -0.00000    0.00000    0.00000
  -0.00000    0.00000   -0.00000    0.00000   -0.00000    0.00000   -0.00000   -0.00000
  -0.00000    0.00000    0.00000    0.00000    0.00000   -0.00000    0.00000   -0.00000
  -0.00000   -0.00000    0.00000    0.00000   -0.00000    0.00000   -0.00000   -0.00000
   0.00000   -0.00000    0.00000   -0.00000    0.00000   -0.00000    0.00000   -0.00000
   0.00000
 prteigrs : prtvol=0 or 1, do not print more k-points.
 
 
 Eight components of 2nd-order total energy (hartree) are
 1,2,3: 0th-order hamiltonian combined with 1st-order wavefunctions
     kin0=   6.15941750E+01 eigvalue=   1.79299282E+00  local=  -2.67664571E+01
 4,5,6: 1st-order hamiltonian combined with 1st and 0th-order wfs
     kin1=  -7.57267737E+01  Hartree=   0.00000000E+00     xc=   0.00000000E+00
 7,8,9: eventually, occupation + non-local contributions
    edocc=   5.73540158E+00     enl0=  -5.84170271E-03   enl1=  -8.97376746E+00
 1-9 gives the relaxation energy (to be shifted if some occ is /=2.0)
   erelax=  -4.23502706E+01
  No Ewald or frozen-wf contrib.: the relaxation energy is the total one
 2DEtotal=   -0.4235027057E+02 Ha. Also 2DEtotal=   -0.115240946911E+04 eV
    (  non-var. 2DEtotal :   -4.2350270572E+01 Ha)
 
--------------------------------------------------------------------------------
 Perturbation wavevector (in red.coord.)   0.000000  0.000000  0.000000
 Perturbation : derivative vs k along direction   3
 The set of symmetries contains only one element for this perturbation.
 symkpt : not enough symmetry to change the number of k points.
 
--------------------------------------------------------------------------------
 
-inwffil : will read wavefunctions from disk file /scratch/users/j/a/jabreu/flow_simple_8atoms/flow/w410/t1/indata/in_WFK
--------------------------------------------------------------------------------
 
 Initialisation of the first-order wave-functions :
  ireadwf=   0

--- !BeginCycle
iteration_state: {dtset: 1, }
solver: {iscf: 7, nstep: 2000, nline: 4, wfoptalg: 0, }
tolerances: {tolwfr: 1.00E-20, }
...
 
     iter   2DEtotal(Ha)        deltaE(Ha) residm    vres2
-ETOT  1  -33.551514307958     -3.355E+01 1.042E-01 0.000E+00
 ETOT  2  -33.635567310505     -8.405E-02 6.526E-03 0.000E+00
 ETOT  3  -33.637061371478     -1.494E-03 3.875E-04 0.000E+00
 ETOT  4  -33.637104910465     -4.354E-05 4.517E-05 0.000E+00
 ETOT  5  -33.637106421545     -1.511E-06 3.937E-06 0.000E+00
 ETOT  6  -33.637106482744     -6.120E-08 6.068E-07 0.000E+00
 ETOT  7  -33.637106485432     -2.688E-09 5.221E-08 0.000E+00
 ETOT  8  -33.637106485558     -1.265E-10 8.472E-09 0.000E+00
 ETOT  9  -33.637106485564     -6.210E-12 7.431E-10 0.000E+00
 ETOT 10  -33.637106485565     -3.340E-13 1.212E-10 0.000E+00
 ETOT 11  -33.637106485565     -2.842E-14 1.083E-11 0.000E+00
 ETOT 12  -33.637106485565     -7.105E-15 1.766E-12 0.000E+00
 ETOT 13  -33.637106485565     -2.842E-14 1.598E-13 0.000E+00
 ETOT 14  -33.637106485565      2.842E-14 2.605E-14 0.000E+00
 ETOT 15  -33.637106485565      7.105E-15 2.379E-15 0.000E+00
 ETOT 16  -33.637106485565      0.000E+00 3.889E-16 0.000E+00
 ETOT 17  -33.637106485565      7.105E-15 3.570E-17 0.000E+00
 ETOT 18  -33.637106485565      0.000E+00 5.870E-18 0.000E+00
 ETOT 19  -33.637106485565     -7.105E-15 5.405E-19 0.000E+00
 ETOT 20  -33.637106485565      7.105E-15 8.949E-20 0.000E+00
 ETOT 21  -33.637106485565     -7.105E-15 1.165E-20 0.000E+00
 ETOT 22  -33.637106485565      7.105E-15 9.915E-21 0.000E+00
 
 At SCF step   22   max residual=  9.92E-21 < tolwfr=  1.00E-20 =>converged.
================================================================================
 
 ----iterations are completed or convergence reached----
 
 dfpt_looppert: DFPT cycle converged with prtwf=-1. Will skip output of the 1st-order WFK file.
 dfpt_looppert : ek2=    5.9905507692E+01
          f-sum rule ratio=    1.0142504435E+00
 prteigrs : about to open file /scratch/users/j/a/jabreu/flow_simple_8atoms/flow/w410/t1/tmpdata/tmp_1WF1_EIG
 Expectation of eigenvalue derivatives (hartree) for nkpt=   2  k points:
  (in case of degenerate eigenvalues, averaged derivative)
 kpt#   1, nband= 49, wtk=  0.50000, kpt=  0.0000  0.0000  0.0000 (reduced coord)
   0.00000    0.00000    0.00000    0.00000    0.00000   -0.00000    0.00000   -0.00000
  -0.00000    0.00000    0.00000    0.00000    0.00000    0.00000   -0.00000    0.00000
  -0.00000   -0.00000    0.00000    0.00000   -0.00000    0.00000   -0.00000    0.00000
  -0.00000    0.00000    0.00000    0.00000   -0.00000   -0.00000    0.00000   -0.00000
   0.00000   -0.00000    0.00000   -0.00000    0.00000    0.00000    0.00000   -0.00000
  -0.00000   -0.00000   -0.00000   -0.00000    0.00000   -0.00000    0.00000   -0.00000
   0.00000
 prteigrs : prtvol=0 or 1, do not print more k-points.
 
 
 Eight components of 2nd-order total energy (hartree) are
 1,2,3: 0th-order hamiltonian combined with 1st-order wavefunctions
     kin0=   5.05153243E+01 eigvalue=   1.33834332E+00  local=  -2.32424143E+01
 4,5,6: 1st-order hamiltonian combined with 1st and 0th-order wfs
     kin1=  -6.07591877E+01  Hartree=   0.00000000E+00     xc=   0.00000000E+00
 7,8,9: eventually, occupation + non-local contributions
    edocc=   5.83756689E+00     enl0=  -8.11713716E-01   enl1=  -6.51502522E+00
 1-9 gives the relaxation energy (to be shifted if some occ is /=2.0)
   erelax=  -3.36371065E+01
  No Ewald or frozen-wf contrib.: the relaxation energy is the total one
 2DEtotal=   -0.3363710649E+02 Ha. Also 2DEtotal=   -0.915312216518E+03 eV
    (  non-var. 2DEtotal :   -3.3637106485E+01 Ha)
 
 CALCULATION OF EFFECTIVE MASSES
 NOTE : Additional infos (eff. mass eigenvalues, eigenvectors and, if degenerate, average mass) are available in stdout.

 K-point ( 0.000, 0.000, 0.000) | band =    40
 Effective mass tensor:
             -2.6646923999             -0.1459158213              0.0000154955
             -0.1459158213             -2.9313028697             -0.0000068430
              0.0000154955             -0.0000068430            -41.7234586411
 Effective mass tensor eigenvalues:
            -41.7234586411             -2.9956379965             -2.6003572731
 Angular average effective mass 1/(<1/m>)=  -4.0412281827
 Angular average effective mass for Frohlich model (<m**0.5>)**2=  -5.1231377115
 Effective masses along directions: (cart. coord. / red. coord. -> eff. mass)
    1:   1.000000  0.000000  0.000000 /   0.829046 -0.559180  0.000000 ->  -2.6574289311
    2:   0.000000  1.000000  0.000000 /   0.000000  1.000000  0.000000 ->  -2.9233126691
    3:   0.000000  0.000000  1.000000 /   0.000000  0.000000  1.000000 -> -41.7234586410
    4:   0.577350  0.577350  0.577350 /   0.767854  0.048991  0.638749 ->  -4.2560128248
    5:   0.000000  0.707107  0.707107 /   0.000000  0.663788  0.747921 ->  -5.4638108732
    6:   0.707107  0.000000  0.707107 /   0.682482 -0.460324  0.567732 ->  -4.9966124175
    7:   0.707107  0.707107  0.000000 /   0.997971  0.063673  0.000000 ->  -2.9372129518

 K-point ( 0.000, 0.000, 0.472) | band =    41
 Effective mass tensor:
              8.4416267321             -1.3312391546              0.0000041938
             -1.3312391546              6.0092235881             -0.0000018486
              0.0000041938             -0.0000018486              0.7119230485
 Effective mass tensor eigenvalues:
              0.7119230485              5.4222768161              9.0285735041
 Angular average effective mass 1/(<1/m>)=   1.7648823352
 Angular average effective mass for Frohlich model (<m**0.5>)**2=   2.5762147908
 Effective masses along directions: (cart. coord. / red. coord. -> eff. mass)
    1:   1.000000  0.000000  0.000000 /   0.829046 -0.559180  0.000000 ->   8.1467138102
    2:   0.000000  1.000000  0.000000 /   0.000000  1.000000  0.000000 ->   5.7992880221
    3:   0.000000  0.000000  1.000000 /   0.000000  0.000000  1.000000 ->   0.7119230485
    4:   0.577350  0.577350  0.577350 /   0.767854  0.048991  0.638749 ->   1.7101665866
    5:   0.000000  0.707107  0.707107 /   0.000000  0.663788  0.747921 ->   1.2681650948
    6:   0.707107  0.000000  0.707107 /   0.682482 -0.460324  0.567732 ->   1.3094200336
    7:   0.707107  0.707107  0.000000 /   0.997971  0.063673  0.000000 ->   5.7213211824

 END OF EFFECTIVE MASSES SECTION

================================================================================
 
 ---- first-order wavefunction calculations are completed ----
 
 
 Total localisation tensor (bohr^2) in cartesian coordinates
  WARNING : still subject to testing - especially symmetries.
      direction              matrix element
   alpha     beta       real part   imaginary part
     1        1       1.5211517028    0.0000000000
     1        2      -0.5206294464    0.0000000000
     1        3       0.0000000000    0.0000000000
     2        1      -0.5206294464    0.0000000000
     2        2       0.5698782968    0.0000000000
     2        3       0.0000000000    0.0000000000
     3        1       0.0000000000    0.0000000000
     3        2       0.0000000000    0.0000000000
     3        3       0.7889534735    0.0000000000
 
 respfn : d/dk was computed, but no 2DTE, so no DDB output.
 
== END DATASET(S) ==============================================================
================================================================================
  
 -outvars: echo values of variables after computation  --------
            acell      1.0000000000E+00  1.0000000000E+00  1.0000000000E+00 Bohr
              amu      1.32905430E+02  6.35460000E+01  1.59994000E+01
             ecut      4.60000000E+01 Hartree
           etotal     -3.3637106486E+01
            fcart      0.0000000000E+00  0.0000000000E+00  0.0000000000E+00
                       0.0000000000E+00  0.0000000000E+00  0.0000000000E+00
                       0.0000000000E+00  0.0000000000E+00  0.0000000000E+00
                       0.0000000000E+00  0.0000000000E+00  0.0000000000E+00
                       0.0000000000E+00  0.0000000000E+00  0.0000000000E+00
                       0.0000000000E+00  0.0000000000E+00  0.0000000000E+00
                       0.0000000000E+00  0.0000000000E+00  0.0000000000E+00
                       0.0000000000E+00  0.0000000000E+00  0.0000000000E+00
-          fftalg         512
           irdden           1
           irdwfk           1
           istwfk        1    0
              ixc     -116133
              kpt      0.00000000E+00  0.00000000E+00  0.00000000E+00
                       0.00000000E+00  0.00000000E+00  4.72222222E-01
           kptopt           0
P           mkmem           2
P          mkqmem           2
P          mk1mem           2
            natom           8
            nband          49
           nbdbuf           4
            ngfft          80      80      64
             nkpt           2
            nstep        2000
             nsym           8
           ntypat           3
              occ      2.000000  2.000000  2.000000  2.000000  2.000000  2.000000
                       2.000000  2.000000  2.000000  2.000000  2.000000  2.000000
                       2.000000  2.000000  2.000000  2.000000  2.000000  2.000000
                       2.000000  2.000000  2.000000  2.000000  2.000000  2.000000
                       2.000000  2.000000  2.000000  2.000000  2.000000  2.000000
                       2.000000  2.000000  2.000000  2.000000  2.000000  2.000000
                       2.000000  2.000000  2.000000  2.000000  0.000000  0.000000
                       0.000000  0.000000  0.000000  0.000000  0.000000  0.000000
                       0.000000
        optdriver           1
            prtwf          -1
            rfdir           1       1       1
           rfelfd           2
            rprim      1.2343963450E+01  0.0000000000E+00  0.0000000000E+00
                      -8.3258228707E+00  9.1134026128E+00  0.0000000000E+00
                       0.0000000000E+00  0.0000000000E+00  1.0268487603E+01
          spgroup          63
           strten      0.0000000000E+00  0.0000000000E+00  0.0000000000E+00
                       0.0000000000E+00  0.0000000000E+00  0.0000000000E+00
           symrel      1  0  0   0  1  0   0  0  1      -1  0  0   0 -1  0   0  0 -1
                       0  1  0   1  0  0   0  0 -1       0 -1  0  -1  0  0   0  0  1
                      -1  0  0   0 -1  0   0  0  1       1  0  0   0  1  0   0  0 -1
                       0 -1  0  -1  0  0   0  0 -1       0  1  0   1  0  0   0  0  1
            tnons      0.0000000  0.0000000  0.0000000     0.0000000  0.0000000  0.0000000
                       0.0000000  0.0000000  0.0000000     0.0000000  0.0000000  0.0000000
                       0.0000000  0.0000000  0.5000000     0.0000000  0.0000000  0.5000000
                       0.0000000  0.0000000  0.5000000     0.0000000  0.0000000  0.5000000
           tolwfr      1.00000000E-20
            typat      1  1  2  2  3  3  3  3
           useylm           1
              wtk        0.50000    0.50000
           xangst     -9.5887355707E-01  3.3028236976E+00  4.0753872047E+00
                       3.0851819726E+00  1.5197812578E+00  1.3584624016E+00
                      -4.3845941491E+00  4.8132394566E+00  4.0753872047E+00
                       6.5109025646E+00  9.3654988234E-03  1.3584624016E+00
                      -3.2977636595E+00  4.3340509604E+00  2.0165015889E-02
                       5.4240720750E+00  4.8855399501E-01  5.4136845904E+00
                       5.4240720750E+00  4.8855399501E-01  2.7370898190E+00
                      -3.2977636595E+00  4.3340509604E+00  2.6967597872E+00
            xcart     -1.8120084189E+00  6.2414322536E+00  7.7013657023E+00
                       5.8301489983E+00  2.8719703592E+00  2.5671219008E+00
                      -8.2856821457E+00  9.0957043849E+00  7.7013657023E+00
                       1.2303822725E+01  1.7698227874E-02  2.5671219008E+00
                      -6.2318701675E+00  8.1901693611E+00  3.8106357495E-02
                       1.0250010747E+01  9.2323325169E-01  1.0230381246E+01
                       1.0250010747E+01  9.2323325169E-01  5.1723501590E+00
                      -6.2318701675E+00  8.1901693611E+00  5.0961374441E+00
             xred      3.1513700000E-01  6.8486300000E-01  7.5000000000E-01
                       6.8486300000E-01  3.1513700000E-01  2.5000000000E-01
                       1.9420000000E-03  9.9805800000E-01  7.5000000000E-01
                       9.9805800000E-01  1.9420000000E-03  2.5000000000E-01
                       1.0130500000E-01  8.9869500000E-01  3.7110000000E-03
                       8.9869500000E-01  1.0130500000E-01  9.9628900000E-01
                       8.9869500000E-01  1.0130500000E-01  5.0371100000E-01
                       1.0130500000E-01  8.9869500000E-01  4.9628900000E-01
            znucl       55.00000   29.00000    8.00000
 
================================================================================


- Timing analysis has been suppressed with timopt=0



================================================================================

 Suggested references for the acknowledgment of ABINIT usage.

 The users of ABINIT have little formal obligations with respect to the ABINIT group
 (those specified in the GNU General Public License, http://www.gnu.org/copyleft/gpl.txt).
 However, it is common practice in the scientific literature,
 to acknowledge the efforts of people that have made the research possible.
 In this spirit, please find below suggested citations of work written by ABINIT developers,
 corresponding to implementations inside of ABINIT that you have used in the present run.
 Note also that it will be of great value to readers of publications presenting these results,
 to read papers enabling them to understand the theoretical formalism and details
 of the ABINIT implementation.
 For information on why they are suggested, see also https://docs.abinit.org/theory/acknowledgments.
-
- [1] Precise effective masses from density functional perturbation theory
- J. Laflamme Janssen, Y. Gillet, S. Ponce, A. Martin, M. Torrent, and X. Gonze. Phys. Rev. B 93, 205147 (2016)
- Comment: in case the DFPT prediction of effective masses is used.
- Strong suggestion to cite this paper in your publications.
- DOI and bibtex: see https://docs.abinit.org/theory/bibliography/#laflamme2016
-
- [2] Libxc: A library of exchange and correlation functionals for density functional theory.
- M.A.L. Marques, M.J.T. Oliveira, T. Burnus, Computer Physics Communications 183, 2227 (2012).
- Comment: to be cited when LibXC is used (negative value of ixc)
- Strong suggestion to cite this paper.
- DOI and bibtex: see https://docs.abinit.org/theory/bibliography/#marques2012
-
- [3] The Abinit project: Impact, environment and recent developments.
- Computer Phys. Comm. 248, 107042 (2020).
- X.Gonze, B. Amadon, G. Antonius, F.Arnardi, L.Baguet, J.-M.Beuken,
- J.Bieder, F.Bottin, J.Bouchet, E.Bousquet, N.Brouwer, F.Bruneval,
- G.Brunin, T.Cavignac, J.-B. Charraud, Wei Chen, M.Cote, S.Cottenier,
- J.Denier, G.Geneste, Ph.Ghosez, M.Giantomassi, Y.Gillet, O.Gingras,
- D.R.Hamann, G.Hautier, Xu He, N.Helbig, N.Holzwarth, Y.Jia, F.Jollet,
- W.Lafargue-Dit-Hauret, K.Lejaeghere, M.A.L.Marques, A.Martin, C.Martins,
- H.P.C. Miranda, F.Naccarato, K. Persson, G.Petretto, V.Planes, Y.Pouillon,
- S.Prokhorenko, F.Ricci, G.-M.Rignanese, A.H.Romero, M.M.Schmitt, M.Torrent,
- M.J.van Setten, B.Van Troeye, M.J.Verstraete, G.Zerah and J.W.Zwanzig
- Comment: the fifth generic paper describing the ABINIT project.
- Note that a version of this paper, that is not formatted for Computer Phys. Comm. 
- is available at https://www.abinit.org/sites/default/files/ABINIT20.pdf .
- The licence allows the authors to put it on the Web.
- DOI and bibtex: see https://docs.abinit.org/theory/bibliography/#gonze2020
-
- [4] First-principles responses of solids to atomic displacements and homogeneous electric fields:,
- implementation of a conjugate-gradient algorithm. X. Gonze, Phys. Rev. B55, 10337 (1997).
- Comment: Non-vanishing rfphon and/or rfelfd, in the norm-conserving case.
- DOI and bibtex: see https://docs.abinit.org/theory/bibliography/#gonze1997
-
- [5] Dynamical matrices, Born effective charges, dielectric permittivity tensors, and ,
- interatomic force constants from density-functional perturbation theory,
- X. Gonze and C. Lee, Phys. Rev. B55, 10355 (1997).
- Comment: Non-vanishing rfphon and/or rfelfd, in the norm-conserving case.
- DOI and bibtex: see https://docs.abinit.org/theory/bibliography/#gonze1997a
-
- [6] Optimized norm-conserving Vanderbilt pseudopotentials.
- D.R. Hamann, Phys. Rev. B 88, 085117 (2013).
- Comment: Some pseudopotential generated using the ONCVPSP code were used.
- DOI and bibtex: see https://docs.abinit.org/theory/bibliography/#hamann2013
-
- [7] ABINIT: Overview, and focus on selected capabilities
- J. Chem. Phys. 152, 124102 (2020).
- A. Romero, D.C. Allan, B. Amadon, G. Antonius, T. Applencourt, L.Baguet,
- J.Bieder, F.Bottin, J.Bouchet, E.Bousquet, F.Bruneval,
- G.Brunin, D.Caliste, M.Cote,
- J.Denier, C. Dreyer, Ph.Ghosez, M.Giantomassi, Y.Gillet, O.Gingras,
- D.R.Hamann, G.Hautier, F.Jollet, G. Jomard,
- A.Martin, 
- H.P.C. Miranda, F.Naccarato, G.Petretto, N.A. Pike, V.Planes,
- S.Prokhorenko, T. Rangel, F.Ricci, G.-M.Rignanese, M.Royo, M.Stengel, M.Torrent,
- M.J.van Setten, B.Van Troeye, M.J.Verstraete, J.Wiktor, J.W.Zwanziger, and X.Gonze.
- Comment: a global overview of ABINIT, with focus on selected capabilities .
- Note that a version of this paper, that is not formatted for J. Chem. Phys 
- is available at https://www.abinit.org/sites/default/files/ABINIT20_JPC.pdf .
- The licence allows the authors to put it on the Web.
- DOI and bibtex: see https://docs.abinit.org/theory/bibliography/#romero2020
-
- [8] Recent developments in the ABINIT software package.
- Computer Phys. Comm. 205, 106 (2016).
- X.Gonze, F.Jollet, F.Abreu Araujo, D.Adams, B.Amadon, T.Applencourt,
- C.Audouze, J.-M.Beuken, J.Bieder, A.Bokhanchuk, E.Bousquet, F.Bruneval
- D.Caliste, M.Cote, F.Dahm, F.Da Pieve, M.Delaveau, M.Di Gennaro,
- B.Dorado, C.Espejo, G.Geneste, L.Genovese, A.Gerossier, M.Giantomassi,
- Y.Gillet, D.R.Hamann, L.He, G.Jomard, J.Laflamme Janssen, S.Le Roux,
- A.Levitt, A.Lherbier, F.Liu, I.Lukacevic, A.Martin, C.Martins,
- M.J.T.Oliveira, S.Ponce, Y.Pouillon, T.Rangel, G.-M.Rignanese,
- A.H.Romero, B.Rousseau, O.Rubel, A.A.Shukri, M.Stankovski, M.Torrent,
- M.J.Van Setten, B.Van Troeye, M.J.Verstraete, D.Waroquier, J.Wiktor,
- B.Xu, A.Zhou, J.W.Zwanziger.
- Comment: the fourth generic paper describing the ABINIT project.
- Note that a version of this paper, that is not formatted for Computer Phys. Comm. 
- is available at https://www.abinit.org/sites/default/files/ABINIT16.pdf .
- The licence allows the authors to put it on the Web.
- DOI and bibtex: see https://docs.abinit.org/theory/bibliography/#gonze2016
-
- Proc.   0 individual time (sec): cpu=        382.0  wall=        402.7
 
================================================================================
 
 Calculation completed.
.Delivered  14 WARNINGs and   9 COMMENTs to log file.
+Overall time at end (sec) : cpu=        382.0  wall=        402.7
