
.Version 9.7.2 of ABINIT 
.(MPI version, prepared for a x86_64_linux_intel19.1 computer) 

.Copyright (C) 1998-2021 ABINIT group . 
 ABINIT comes with ABSOLUTELY NO WARRANTY.
 It is free software, and you are welcome to redistribute it
 under certain conditions (GNU General Public License,
 see ~abinit/COPYING or http://www.gnu.org/copyleft/gpl.txt).

 ABINIT is a project of the Universite Catholique de Louvain,
 Corning Inc. and other collaborators, see ~abinit/doc/developers/contributors.txt .
 Please read https://docs.abinit.org/theory/acknowledgments for suggested
 acknowledgments of the ABINIT effort.
 For more information, see https://www.abinit.org .

.Starting date : Wed  1 Dec 2021.
- ( at 21h57 )
  
- input  file    -> /scratch/users/j/a/jabreu/flow_simple_remain_atoms/flow/w249/t1/run.abi
- output file    -> /scratch/users/j/a/jabreu/flow_simple_remain_atoms/flow/w249/t1/run.abo
- root for input  files -> /scratch/users/j/a/jabreu/flow_simple_remain_atoms/flow/w249/t1/indata/in
- root for output files -> /scratch/users/j/a/jabreu/flow_simple_remain_atoms/flow/w249/t1/outdata/out
 
 
 Symmetries : space group R-3 m (#166); Bravais hR (rhombohedral)
================================================================================
 Values of the parameters that define the memory need of the present run (RF).
     intxc =       0      iscf =       7    lmnmax =      32     lnmax =       8
     mgfft =     108  mpssoang =       4    mqgrid =    3001     natom =       4
  nloc_mem =       1    nspden =       1   nspinor =       1    nsppol =       1
      nsym =      12    n1xccc =    2501    ntypat =       3    occopt =       1
   xclevel =       2
-    mband =          25        mffmem =           1         mkmem =           2
-   mkqmem =           2        mk1mem =           2           mpw =       15240
      nfft =     1259712          nkpt =           2
================================================================================
P This job should need less than                     359.718 Mbytes of memory.
  Rough estimation (10% accuracy) of disk space for files :
_ WF disk file :     11.629 Mbytes ; DEN or POT disk file :      9.613 Mbytes.
================================================================================
 
--------------------------------------------------------------------------------
------------- Echo of variables that govern the present computation ------------
--------------------------------------------------------------------------------
-
- outvars: echo of selected default values                                      
-   iomode0 =  0 , fftalg0 =512 , wfoptalg0 =  0
-
- outvars: echo of global parameters not present in the input file              
-  max_nthreads =    0
-
 -outvars: echo values of preprocessed input variables --------
            acell      1.0000000000E+00  1.0000000000E+00  1.0000000000E+00 Bohr
              amu      1.32905430E+02  1.38905500E+02  3.20660000E+01
             ecut      5.20000000E+01 Hartree
-          fftalg         512
           irdden           1
           irdwfk           1
           istwfk        1    1
              ixc     -116133
              kpt      0.00000000E+00  0.00000000E+00  0.00000000E+00
                       5.00000000E-01  5.00000000E-01  0.00000000E+00
           kptopt           0
P           mkmem           2
P          mkqmem           2
P          mk1mem           2
            natom           4
            nband          25
           nbdbuf           4
            ngfft         108     108     108
             nkpt           2
            nstep        2000
             nsym          12
           ntypat           3
              occ      2.000000  2.000000  2.000000  2.000000  2.000000  2.000000
                       2.000000  2.000000  2.000000  2.000000  2.000000  2.000000
                       2.000000  2.000000  2.000000  2.000000  0.000000  0.000000
                       0.000000  0.000000  0.000000  0.000000  0.000000  0.000000
                       0.000000
        optdriver           1
            prtwf          -1
            rfdir           1       1       1
           rfelfd           2
            rprim      7.8194870944E+00  0.0000000000E+00  1.3595467884E+01
                       3.6308844533E+00  6.9253921554E+00  1.3595467884E+01
                       0.0000000000E+00  0.0000000000E+00  1.5683785430E+01
          spgroup         166
           symrel      1  0  0   0  1  0   0  0  1      -1  0  0   0 -1  0   0  0 -1
                       0  1  0   1  0  0   0  0  1       0 -1  0  -1  0  0   0  0 -1
                       0  0  1   1  0  0   0  1  0       0  0 -1  -1  0  0   0 -1  0
                       1  0  0   0  0  1   0  1  0      -1  0  0   0  0 -1   0 -1  0
                       0  1  0   0  0  1   1  0  0       0 -1  0   0  0 -1  -1  0  0
                       0  0  1   0  1  0   1  0  0       0  0 -1   0 -1  0  -1  0  0
           tolwfr      1.00000000E-20
            typat      1  2  3  3
           useylm           1
              wtk        0.50000    0.50000
           xangst      0.0000000000E+00  0.0000000000E+00  0.0000000000E+00
                       3.0296378265E+00  1.8323798446E+00  1.1344162641E+01
                       1.3905916438E+00  8.4105501915E-01  5.2069252756E+00
                       4.6686840091E+00  2.8237046700E+00  1.7481400007E+01
            xcart      0.0000000000E+00  0.0000000000E+00  0.0000000000E+00
                       5.7251857739E+00  3.4626960777E+00  2.1437360599E+01
                       2.6278373695E+00  1.5893636489E+00  9.8396627653E+00
                       8.8225341782E+00  5.3360285065E+00  3.3035058432E+01
             xred      0.0000000000E+00  0.0000000000E+00  0.0000000000E+00
                       5.0000000000E-01  5.0000000000E-01  5.0000000000E-01
                       2.2949800000E-01  2.2949800000E-01  2.2949800000E-01
                       7.7050200000E-01  7.7050200000E-01  7.7050200000E-01
            znucl       55.00000   57.00000   16.00000
 
================================================================================
 
 chkinp: Checking input parameters for consistency.
 
================================================================================
== DATASET  1 ==================================================================
-   mpi_nproc: 1, omp_nthreads: -1 (-1 if OMP is not activated)
 

--- !DatasetInfo
iteration_state: {dtset: 1, }
dimensions: {natom: 4, nkpt: 2, mband: 25, nsppol: 1, nspinor: 1, nspden: 1, mpw: 15240, }
cutoff_energies: {ecut:  52.0, pawecutdg:  -1.0, }
electrons: {nelect:   3.20000000E+01, charge:   0.00000000E+00, occopt:   1.00000000E+00, tsmear:   1.00000000E-02, }
meta: {optdriver: 1, rfelfd: 2, }
...

 Real(R)+Recip(G) space primitive vectors, cartesian coordinates (Bohr,Bohr^-1):
 R(1)=  7.8194871  0.0000000 13.5954679  G(1)=  0.1278856 -0.0670486  0.0000000
 R(2)=  3.6308845  6.9253922 13.5954679  G(2)=  0.0000000  0.1443962  0.0000000
 R(3)=  0.0000000  0.0000000 15.6837854  G(3)= -0.1108575 -0.0670486  0.0637601
 Unit cell volume ucvol=  8.4932426E+02 bohr^3
 Angles (23,13,12)=  2.99055305E+01  2.99055305E+01  2.99055305E+01 degrees
 
 getcut: wavevector=  0.0000  0.0000  0.0000  ngfft= 108 108 108
         ecut(hartree)=     52.000   => boxcut(ratio)=   2.12139
 
--- Pseudopotential description ------------------------------------------------
- pspini: atom type   1  psp file is /scratch/users/j/a/jabreu/pseudos/PBEsol/Cs.psp8
- pspatm: opening atomic psp file    /scratch/users/j/a/jabreu/pseudos/PBEsol/Cs.psp8
- Cs    ONCVPSP-3.3.0  r_core=   2.27353   1.85623   2.01788   1.90105
- 55.00000   9.00000    180112                znucl, zion, pspdat
    8 -116133    3    4       600   0.00000   pspcod,pspxc,lmax,lloc,mmax,r2well
    5.99000000000000    5.00000000000000    0.00000000000000   rchrg,fchrg,qchrg
     nproj     2     2     2     2
     extension_switch     1
  pspatm : epsatm=   22.12462445
         --- l  ekb(1:nproj) -->
             0    6.214110    0.767882
             1    6.311966    0.793598
             2    3.769790    0.913105
             3   -9.247129   -2.432478
 pspatm: atomic psp has been read  and splines computed
 
- pspini: atom type   2  psp file is /scratch/users/j/a/jabreu/pseudos/PBEsol/La.psp8
- pspatm: opening atomic psp file    /scratch/users/j/a/jabreu/pseudos/PBEsol/La.psp8
- La    ONCVPSP-3.3.0  r_core=   2.11664   1.60878   1.85636   1.66739
- 57.00000  11.00000    180112                znucl, zion, pspdat
    8 -116133    3    4       600   0.00000   pspcod,pspxc,lmax,lloc,mmax,r2well
    5.99000000000000    5.00000000000000    0.00000000000000   rchrg,fchrg,qchrg
     nproj     2     2     2     2
     extension_switch     1
  pspatm : epsatm=   29.08531775
         --- l  ekb(1:nproj) -->
             0    6.695600    0.639047
             1    6.383649    1.151322
             2    3.612966    0.847811
             3  -13.718437   -4.858923
 pspatm: atomic psp has been read  and splines computed
 
- pspini: atom type   3  psp file is /scratch/users/j/a/jabreu/pseudos/PBEsol/S.psp8
- pspatm: opening atomic psp file    /scratch/users/j/a/jabreu/pseudos/PBEsol/S.psp8
- S     ONCVPSP-3.3.0  r_core=   1.45376   1.45376   1.61851
- 16.00000   6.00000    180112                znucl, zion, pspdat
    8 -116133    2    4       600   0.00000   pspcod,pspxc,lmax,lloc,mmax,r2well
    5.99000000000000    6.00000000000000    0.00000000000000   rchrg,fchrg,qchrg
     nproj     2     2     2
     extension_switch     1
  pspatm : epsatm=    8.71840985
         --- l  ekb(1:nproj) -->
             0    6.834532    0.579453
             1    3.282851    0.896984
             2   -3.496974   -0.974265
 pspatm: atomic psp has been read  and splines computed
 
   2.19669638E+03                                ecore*ucvol(ha*bohr**3)
--------------------------------------------------------------------------------
 
 
 ==>  initialize data related to q vector <== 
 
 The list of irreducible perturbations for this q vector is:
    1)    idir= 1    ipert=   5
    2)    idir= 2    ipert=   5
    3)    idir= 3    ipert=   5
 
================================================================================
 
--------------------------------------------------------------------------------
 Perturbation wavevector (in red.coord.)   0.000000  0.000000  0.000000
 Perturbation : derivative vs k along direction   1
 
 dfpt_looppert : COMMENT -
  In a d/dk calculation, iscf is set to -3 automatically.
 The set of symmetries contains only one element for this perturbation.
 symkpt : not enough symmetry to change the number of k points.
 
--------------------------------------------------------------------------------
 
--------------------------------------------------------------------------------
 
 Initialisation of the first-order wave-functions :
  ireadwf=   0

--- !BeginCycle
iteration_state: {dtset: 1, }
solver: {iscf: 7, nstep: 2000, nline: 4, wfoptalg: 0, }
tolerances: {tolwfr: 1.00E-20, }
...
 
     iter   2DEtotal(Ha)        deltaE(Ha) residm    vres2
-ETOT  1  -31.347307464845     -3.135E+01 9.257E-02 0.000E+00
 ETOT  2  -31.402022686866     -5.472E-02 6.085E-02 0.000E+00
 ETOT  3  -31.405748275974     -3.726E-03 1.806E-02 0.000E+00
 ETOT  4  -31.406646025241     -8.977E-04 2.480E-02 0.000E+00
 ETOT  5  -31.406901420959     -2.554E-04 1.363E-02 0.000E+00
 ETOT  6  -31.406976340991     -7.492E-05 1.568E-02 0.000E+00
 ETOT  7  -31.406998580549     -2.224E-05 9.676E-03 0.000E+00
 ETOT  8  -31.407005223500     -6.643E-06 1.204E-02 0.000E+00
 ETOT  9  -31.407007220118     -1.997E-06 6.666E-03 0.000E+00
 ETOT 10  -31.407007823251     -6.031E-07 8.771E-03 0.000E+00
 ETOT 11  -31.407008006474     -1.832E-07 4.639E-03 0.000E+00
 ETOT 12  -31.407008062414     -5.594E-08 6.127E-03 0.000E+00
 ETOT 13  -31.407008079586     -1.717E-08 3.210E-03 0.000E+00
 ETOT 14  -31.407008084884     -5.298E-09 4.453E-03 0.000E+00
 ETOT 15  -31.407008086527     -1.643E-09 2.296E-03 0.000E+00
 ETOT 16  -31.407008087039     -5.120E-10 3.239E-03 0.000E+00
 ETOT 17  -31.407008087199     -1.605E-10 1.644E-03 0.000E+00
 ETOT 18  -31.407008087250     -5.073E-11 2.353E-03 0.000E+00
 ETOT 19  -31.407008087266     -1.628E-11 1.180E-03 0.000E+00
 ETOT 20  -31.407008087272     -5.333E-12 1.707E-03 0.000E+00
 ETOT 21  -31.407008087273     -1.727E-12 8.482E-04 0.000E+00
 ETOT 22  -31.407008087274     -5.578E-13 1.238E-03 0.000E+00
 ETOT 23  -31.407008087274     -1.705E-13 6.104E-04 0.000E+00
 ETOT 24  -31.407008087274     -9.237E-14 8.965E-04 0.000E+00
 ETOT 25  -31.407008087274     -3.553E-15 4.396E-04 0.000E+00
 ETOT 26  -31.407008087274     -1.421E-14 6.487E-04 0.000E+00
 ETOT 27  -31.407008087274     -7.105E-15 3.168E-04 0.000E+00
 ETOT 28  -31.407008087274     -7.105E-15 4.690E-04 0.000E+00
 ETOT 29  -31.407008087274      1.066E-14 2.284E-04 0.000E+00
 ETOT 30  -31.407008087274     -3.553E-15 3.389E-04 0.000E+00
 ETOT 31  -31.407008087274      1.421E-14 1.648E-04 0.000E+00
 ETOT 32  -31.407008087274     -2.842E-14 2.448E-04 0.000E+00
 ETOT 33  -31.407008087274      4.619E-14 1.189E-04 0.000E+00
 ETOT 34  -31.407008087274     -3.553E-15 1.769E-04 0.000E+00
 ETOT 35  -31.407008087274     -1.421E-14 8.580E-05 0.000E+00
 ETOT 36  -31.407008087274      3.553E-15 1.278E-04 0.000E+00
 ETOT 37  -31.407008087274      1.421E-14 6.194E-05 0.000E+00
 ETOT 38  -31.407008087274     -1.421E-14 9.232E-05 0.000E+00
 ETOT 39  -31.407008087274     -7.105E-15 4.474E-05 0.000E+00
 ETOT 40  -31.407008087274      3.553E-15 6.673E-05 0.000E+00
 ETOT 41  -31.407008087274     -1.066E-14 3.232E-05 0.000E+00
 ETOT 42  -31.407008087274      1.066E-14 4.824E-05 0.000E+00
 ETOT 43  -31.407008087274     -7.105E-15 2.335E-05 0.000E+00
 ETOT 44  -31.407008087274      3.553E-15 3.488E-05 0.000E+00
 ETOT 45  -31.407008087274      0.000E+00 1.688E-05 0.000E+00
 ETOT 46  -31.407008087274      0.000E+00 2.523E-05 0.000E+00
 ETOT 47  -31.407008087274      7.105E-15 1.220E-05 0.000E+00
 ETOT 48  -31.407008087274      0.000E+00 1.825E-05 0.000E+00
 ETOT 49  -31.407008087274      0.000E+00 8.821E-06 0.000E+00
 ETOT 50  -31.407008087274      3.553E-15 1.320E-05 0.000E+00
 ETOT 51  -31.407008087274     -7.105E-15 6.378E-06 0.000E+00
 ETOT 52  -31.407008087274      0.000E+00 9.555E-06 0.000E+00
 ETOT 53  -31.407008087274     -3.553E-15 4.613E-06 0.000E+00
 ETOT 54  -31.407008087274     -3.553E-15 6.914E-06 0.000E+00
 ETOT 55  -31.407008087274     -3.553E-15 3.336E-06 0.000E+00
 ETOT 56  -31.407008087274      7.105E-15 5.003E-06 0.000E+00
 ETOT 57  -31.407008087274     -3.553E-15 2.413E-06 0.000E+00
 ETOT 58  -31.407008087274     -7.105E-15 3.621E-06 0.000E+00
 ETOT 59  -31.407008087274      7.105E-15 1.746E-06 0.000E+00
 ETOT 60  -31.407008087274      3.553E-15 2.620E-06 0.000E+00
 ETOT 61  -31.407008087274      1.421E-14 1.263E-06 0.000E+00
 ETOT 62  -31.407008087274     -1.776E-14 1.896E-06 0.000E+00
 ETOT 63  -31.407008087274      0.000E+00 9.137E-07 0.000E+00
 ETOT 64  -31.407008087274     -1.066E-14 1.373E-06 0.000E+00
 ETOT 65  -31.407008087274      1.421E-14 6.611E-07 0.000E+00
 ETOT 66  -31.407008087274     -7.105E-15 9.934E-07 0.000E+00
 ETOT 67  -31.407008087274     -3.553E-15 4.784E-07 0.000E+00
 ETOT 68  -31.407008087274      1.776E-14 7.190E-07 0.000E+00
 ETOT 69  -31.407008087274      0.000E+00 3.462E-07 0.000E+00
 ETOT 70  -31.407008087274     -1.066E-14 5.203E-07 0.000E+00
 ETOT 71  -31.407008087274      7.105E-15 2.505E-07 0.000E+00
 ETOT 72  -31.407008087274      1.066E-14 3.766E-07 0.000E+00
 ETOT 73  -31.407008087274     -3.553E-15 1.813E-07 0.000E+00
 ETOT 74  -31.407008087274     -1.421E-14 2.726E-07 0.000E+00
 ETOT 75  -31.407008087274      2.842E-14 1.312E-07 0.000E+00
 ETOT 76  -31.407008087274     -3.553E-15 1.973E-07 0.000E+00
 ETOT 77  -31.407008087274      3.553E-15 9.496E-08 0.000E+00
 ETOT 78  -31.407008087274     -2.842E-14 1.428E-07 0.000E+00
 ETOT 79  -31.407008087274      1.776E-14 6.873E-08 0.000E+00
 ETOT 80  -31.407008087274      3.553E-15 1.034E-07 0.000E+00
 ETOT 81  -31.407008087274     -3.553E-15 4.975E-08 0.000E+00
 ETOT 82  -31.407008087274      0.000E+00 7.482E-08 0.000E+00
 ETOT 83  -31.407008087274     -1.776E-14 3.601E-08 0.000E+00
 ETOT 84  -31.407008087274      1.776E-14 5.416E-08 0.000E+00
 ETOT 85  -31.407008087274     -2.842E-14 2.607E-08 0.000E+00
 ETOT 86  -31.407008087274      0.000E+00 3.920E-08 0.000E+00
 ETOT 87  -31.407008087274     -3.553E-15 1.887E-08 0.000E+00
 ETOT 88  -31.407008087274      2.842E-14 2.838E-08 0.000E+00
 ETOT 89  -31.407008087274      0.000E+00 1.366E-08 0.000E+00
 ETOT 90  -31.407008087274     -7.105E-15 2.054E-08 0.000E+00
 ETOT 91  -31.407008087274     -1.066E-14 9.888E-09 0.000E+00
 ETOT 92  -31.407008087274     -1.066E-14 1.487E-08 0.000E+00
 ETOT 93  -31.407008087274      2.842E-14 7.159E-09 0.000E+00
 ETOT 94  -31.407008087274      0.000E+00 1.077E-08 0.000E+00
 ETOT 95  -31.407008087274     -7.105E-15 5.183E-09 0.000E+00
 ETOT 96  -31.407008087274      3.553E-15 7.794E-09 0.000E+00
 ETOT 97  -31.407008087274     -3.553E-15 3.752E-09 0.000E+00
 ETOT 98  -31.407008087274      3.553E-15 5.642E-09 0.000E+00
 ETOT 99  -31.407008087274     -1.421E-14 2.717E-09 0.000E+00
 ETOT  100  -31.407008087274      1.421E-14 4.085E-09 0.000E+00
 ETOT  101  -31.407008087274     -3.553E-15 1.967E-09 0.000E+00
 ETOT  102  -31.407008087274     -3.553E-15 2.957E-09 0.000E+00
 ETOT  103  -31.407008087274     -3.553E-15 1.424E-09 0.000E+00
 ETOT  104  -31.407008087274      1.421E-14 2.141E-09 0.000E+00
 ETOT  105  -31.407008087274      0.000E+00 1.031E-09 0.000E+00
 ETOT  106  -31.407008087274     -7.105E-15 1.550E-09 0.000E+00
 ETOT  107  -31.407008087274      1.066E-14 7.465E-10 0.000E+00
 ETOT  108  -31.407008087274     -3.553E-15 1.122E-09 0.000E+00
 ETOT  109  -31.407008087274     -1.066E-14 5.405E-10 0.000E+00
 ETOT  110  -31.407008087274     -7.105E-15 8.126E-10 0.000E+00
 ETOT  111  -31.407008087274      2.842E-14 3.914E-10 0.000E+00
 ETOT  112  -31.407008087274     -3.553E-15 5.884E-10 0.000E+00
 ETOT  113  -31.407008087274     -1.066E-14 2.834E-10 0.000E+00
 ETOT  114  -31.407008087274      0.000E+00 4.260E-10 0.000E+00
 ETOT  115  -31.407008087274     -3.553E-15 2.052E-10 0.000E+00
 ETOT  116  -31.407008087274      2.132E-14 3.085E-10 0.000E+00
 ETOT  117  -31.407008087274      0.000E+00 1.486E-10 0.000E+00
 ETOT  118  -31.407008087274     -2.487E-14 2.233E-10 0.000E+00
 ETOT  119  -31.407008087274     -1.421E-14 1.076E-10 0.000E+00
 ETOT  120  -31.407008087274      2.842E-14 1.617E-10 0.000E+00
 ETOT  121  -31.407008087274     -3.553E-15 7.790E-11 0.000E+00
 ETOT  122  -31.407008087274      7.105E-15 1.171E-10 0.000E+00
 ETOT  123  -31.407008087274     -1.776E-14 5.641E-11 0.000E+00
 ETOT  124  -31.407008087274      7.105E-15 8.479E-11 0.000E+00
 ETOT  125  -31.407008087274      0.000E+00 4.085E-11 0.000E+00
 ETOT  126  -31.407008087274     -3.553E-15 6.140E-11 0.000E+00
 ETOT  127  -31.407008087274     -7.105E-15 2.958E-11 0.000E+00
 ETOT  128  -31.407008087274      7.105E-15 4.446E-11 0.000E+00
 ETOT  129  -31.407008087274     -1.421E-14 2.142E-11 0.000E+00
 ETOT  130  -31.407008087274      2.132E-14 3.219E-11 0.000E+00
 ETOT  131  -31.407008087274     -1.066E-14 1.551E-11 0.000E+00
 ETOT  132  -31.407008087274      1.066E-14 2.331E-11 0.000E+00
 ETOT  133  -31.407008087274     -7.105E-15 1.123E-11 0.000E+00
 ETOT  134  -31.407008087274     -1.066E-14 1.688E-11 0.000E+00
 ETOT  135  -31.407008087274      3.553E-15 8.133E-12 0.000E+00
 ETOT  136  -31.407008087274      3.553E-15 1.222E-11 0.000E+00
 ETOT  137  -31.407008087274      3.553E-15 5.890E-12 0.000E+00
 ETOT  138  -31.407008087274     -3.553E-15 8.852E-12 0.000E+00
 ETOT  139  -31.407008087274      7.105E-15 4.265E-12 0.000E+00
 ETOT  140  -31.407008087274     -1.421E-14 6.410E-12 0.000E+00
 ETOT  141  -31.407008087274     -3.553E-15 3.088E-12 0.000E+00
 ETOT  142  -31.407008087274      7.105E-15 4.642E-12 0.000E+00
 ETOT  143  -31.407008087274      7.105E-15 2.236E-12 0.000E+00
 ETOT  144  -31.407008087274      2.842E-14 3.362E-12 0.000E+00
 ETOT  145  -31.407008087274     -1.066E-14 1.620E-12 0.000E+00
 ETOT  146  -31.407008087274     -1.066E-14 2.434E-12 0.000E+00
 ETOT  147  -31.407008087274     -7.105E-15 1.173E-12 0.000E+00
 ETOT  148  -31.407008087274     -1.066E-14 1.763E-12 0.000E+00
 ETOT  149  -31.407008087274      3.908E-14 8.493E-13 0.000E+00
 ETOT  150  -31.407008087274     -1.421E-14 1.277E-12 0.000E+00
 ETOT  151  -31.407008087274     -7.105E-15 6.150E-13 0.000E+00
 ETOT  152  -31.407008087274      3.553E-15 9.246E-13 0.000E+00
 ETOT  153  -31.407008087274     -3.553E-15 4.454E-13 0.000E+00
 ETOT  154  -31.407008087274      2.132E-14 6.696E-13 0.000E+00
 ETOT  155  -31.407008087274     -1.421E-14 3.225E-13 0.000E+00
 ETOT  156  -31.407008087274      0.000E+00 4.849E-13 0.000E+00
 ETOT  157  -31.407008087274     -7.105E-15 2.336E-13 0.000E+00
 ETOT  158  -31.407008087274      3.553E-15 3.512E-13 0.000E+00
 ETOT  159  -31.407008087274      7.105E-15 1.691E-13 0.000E+00
 ETOT  160  -31.407008087274      0.000E+00 2.543E-13 0.000E+00
 ETOT  161  -31.407008087274     -1.066E-14 1.225E-13 0.000E+00
 ETOT  162  -31.407008087274      0.000E+00 1.842E-13 0.000E+00
 ETOT  163  -31.407008087274      0.000E+00 8.870E-14 0.000E+00
 ETOT  164  -31.407008087274      2.132E-14 1.334E-13 0.000E+00
 ETOT  165  -31.407008087274     -1.421E-14 6.423E-14 0.000E+00
 ETOT  166  -31.407008087274     -1.776E-14 9.660E-14 0.000E+00
 ETOT  167  -31.407008087274      2.842E-14 4.651E-14 0.000E+00
 ETOT  168  -31.407008087274     -3.553E-15 6.996E-14 0.000E+00
 ETOT  169  -31.407008087274     -2.132E-14 3.368E-14 0.000E+00
 ETOT  170  -31.407008087274      1.776E-14 5.066E-14 0.000E+00
 ETOT  171  -31.407008087274     -3.553E-15 2.439E-14 0.000E+00
 ETOT  172  -31.407008087274      0.000E+00 3.669E-14 0.000E+00
 ETOT  173  -31.407008087274      1.421E-14 1.766E-14 0.000E+00
 ETOT  174  -31.407008087274     -2.132E-14 2.657E-14 0.000E+00
 ETOT  175  -31.407008087274      7.105E-15 1.279E-14 0.000E+00
 ETOT  176  -31.407008087274      0.000E+00 1.925E-14 0.000E+00
 ETOT  177  -31.407008087274     -1.421E-14 9.264E-15 0.000E+00
 ETOT  178  -31.407008087274      2.132E-14 1.394E-14 0.000E+00
 ETOT  179  -31.407008087274     -1.421E-14 6.709E-15 0.000E+00
 ETOT  180  -31.407008087274      7.105E-15 1.009E-14 0.000E+00
 ETOT  181  -31.407008087274      0.000E+00 4.858E-15 0.000E+00
 ETOT  182  -31.407008087274     -7.105E-15 7.311E-15 0.000E+00
 ETOT  183  -31.407008087274      1.066E-14 3.518E-15 0.000E+00
 ETOT  184  -31.407008087274     -2.132E-14 5.295E-15 0.000E+00
 ETOT  185  -31.407008087274      7.105E-15 2.548E-15 0.000E+00
 ETOT  186  -31.407008087274      0.000E+00 3.835E-15 0.000E+00
 ETOT  187  -31.407008087274      1.066E-14 1.845E-15 0.000E+00
 ETOT  188  -31.407008087274      3.553E-15 2.777E-15 0.000E+00
 ETOT  189  -31.407008087274      0.000E+00 1.336E-15 0.000E+00
 ETOT  190  -31.407008087274     -1.776E-14 2.011E-15 0.000E+00
 ETOT  191  -31.407008087274      1.066E-14 9.676E-16 0.000E+00
 ETOT  192  -31.407008087274      1.066E-14 1.457E-15 0.000E+00
 ETOT  193  -31.407008087274      0.000E+00 7.007E-16 0.000E+00
 ETOT  194  -31.407008087274     -7.105E-15 1.055E-15 0.000E+00
 ETOT  195  -31.407008087274     -7.105E-15 5.074E-16 0.000E+00
 ETOT  196  -31.407008087274      0.000E+00 7.641E-16 0.000E+00
 ETOT  197  -31.407008087274     -1.066E-14 3.675E-16 0.000E+00
 ETOT  198  -31.407008087274      7.105E-15 5.534E-16 0.000E+00
 ETOT  199  -31.407008087274      3.553E-15 2.661E-16 0.000E+00
 ETOT  200  -31.407008087274      7.105E-15 4.008E-16 0.000E+00
 ETOT  201  -31.407008087274     -3.553E-15 1.927E-16 0.000E+00
 ETOT  202  -31.407008087274     -1.066E-14 2.903E-16 0.000E+00
 ETOT  203  -31.407008087274      2.487E-14 1.396E-16 0.000E+00
 ETOT  204  -31.407008087274     -1.421E-14 2.102E-16 0.000E+00
 ETOT  205  -31.407008087274      7.105E-15 1.011E-16 0.000E+00
 ETOT  206  -31.407008087274     -3.553E-15 1.523E-16 0.000E+00
 ETOT  207  -31.407008087274      0.000E+00 7.319E-17 0.000E+00
 ETOT  208  -31.407008087274      0.000E+00 1.103E-16 0.000E+00
 ETOT  209  -31.407008087274     -7.105E-15 5.300E-17 0.000E+00
 ETOT  210  -31.407008087274      0.000E+00 7.987E-17 0.000E+00
 ETOT  211  -31.407008087274      0.000E+00 3.838E-17 0.000E+00
 ETOT  212  -31.407008087274     -7.105E-15 5.785E-17 0.000E+00
 ETOT  213  -31.407008087274      7.105E-15 2.780E-17 0.000E+00
 ETOT  214  -31.407008087274      3.553E-15 4.190E-17 0.000E+00
 ETOT  215  -31.407008087274     -3.553E-15 2.013E-17 0.000E+00
 ETOT  216  -31.407008087274      7.105E-15 3.034E-17 0.000E+00
 ETOT  217  -31.407008087274      0.000E+00 1.458E-17 0.000E+00
 ETOT  218  -31.407008087274     -1.066E-14 2.198E-17 0.000E+00
 ETOT  219  -31.407008087274      3.553E-15 1.056E-17 0.000E+00
 ETOT  220  -31.407008087274      7.105E-15 1.592E-17 0.000E+00
 ETOT  221  -31.407008087274      3.553E-15 7.646E-18 0.000E+00
 ETOT  222  -31.407008087274     -3.553E-15 1.153E-17 0.000E+00
 ETOT  223  -31.407008087274     -3.553E-15 5.537E-18 0.000E+00
 ETOT  224  -31.407008087274      7.105E-15 8.350E-18 0.000E+00
 ETOT  225  -31.407008087274      7.105E-15 4.010E-18 0.000E+00
 ETOT  226  -31.407008087274     -3.553E-15 6.047E-18 0.000E+00
 ETOT  227  -31.407008087274     -1.776E-14 2.904E-18 0.000E+00
 ETOT  228  -31.407008087274      2.487E-14 4.380E-18 0.000E+00
 ETOT  229  -31.407008087274      0.000E+00 2.103E-18 0.000E+00
 ETOT  230  -31.407008087274     -2.487E-14 3.172E-18 0.000E+00
 ETOT  231  -31.407008087274      1.066E-14 1.523E-18 0.000E+00
 ETOT  232  -31.407008087274      0.000E+00 2.298E-18 0.000E+00
 ETOT  233  -31.407008087274      0.000E+00 1.103E-18 0.000E+00
 ETOT  234  -31.407008087274      0.000E+00 1.664E-18 0.000E+00
 ETOT  235  -31.407008087274      1.421E-14 7.986E-19 0.000E+00
 ETOT  236  -31.407008087274     -1.421E-14 1.205E-18 0.000E+00
 ETOT  237  -31.407008087274     -7.105E-15 5.783E-19 0.000E+00
 ETOT  238  -31.407008087274      2.487E-14 8.730E-19 0.000E+00
 ETOT  239  -31.407008087274      7.105E-15 4.188E-19 0.000E+00
 ETOT  240  -31.407008087274     -1.776E-14 6.323E-19 0.000E+00
 ETOT  241  -31.407008087274      1.421E-14 3.033E-19 0.000E+00
 ETOT  242  -31.407008087274     -7.105E-15 4.580E-19 0.000E+00
 ETOT  243  -31.407008087274      7.105E-15 2.196E-19 0.000E+00
 ETOT  244  -31.407008087274     -1.421E-14 3.317E-19 0.000E+00
 ETOT  245  -31.407008087274      7.105E-15 1.590E-19 0.000E+00
 ETOT  246  -31.407008087274     -7.105E-15 2.402E-19 0.000E+00
 ETOT  247  -31.407008087274      7.105E-15 1.152E-19 0.000E+00
 ETOT  248  -31.407008087274     -7.105E-15 1.740E-19 0.000E+00
 ETOT  249  -31.407008087274      0.000E+00 8.342E-20 0.000E+00
 ETOT  250  -31.407008087274     -7.105E-15 1.260E-19 0.000E+00
 ETOT  251  -31.407008087274      1.066E-14 6.041E-20 0.000E+00
 ETOT  252  -31.407008087274      3.553E-15 9.127E-20 0.000E+00
 ETOT  253  -31.407008087274     -1.066E-14 4.374E-20 0.000E+00
 ETOT  254  -31.407008087274     -7.105E-15 6.611E-20 0.000E+00
 ETOT  255  -31.407008087274      7.105E-15 3.167E-20 0.000E+00
 ETOT  256  -31.407008087274      0.000E+00 4.788E-20 0.000E+00
 ETOT  257  -31.407008087274     -7.105E-15 2.293E-20 0.000E+00
 ETOT  258  -31.407008087274     -1.421E-14 3.468E-20 0.000E+00
 ETOT  259  -31.407008087274      0.000E+00 1.661E-20 0.000E+00
 ETOT  260  -31.407008087274      0.000E+00 2.512E-20 0.000E+00
 ETOT  261  -31.407008087274      7.105E-15 1.202E-20 0.000E+00
 ETOT  262  -31.407008087274      1.066E-14 1.820E-20 0.000E+00
 ETOT  263  -31.407008087274     -1.421E-14 9.832E-21 0.000E+00
 
 At SCF step  263   max residual=  9.83E-21 < tolwfr=  1.00E-20 =>converged.
================================================================================
 
 ----iterations are completed or convergence reached----
 
 dfpt_looppert: DFPT cycle converged with prtwf=-1. Will skip output of the 1st-order WFK file.
 dfpt_looppert : ek2=    5.2680631136E+01
          f-sum rule ratio=    1.1464808062E+00
 prteigrs : about to open file /scratch/users/j/a/jabreu/flow_simple_remain_atoms/flow/w249/t1/tmpdata/tmp_1WF1_EIG
 Expectation of eigenvalue derivatives (hartree) for nkpt=   2  k points:
  (in case of degenerate eigenvalues, averaged derivative)
 kpt#   1, nband= 25, wtk=  0.50000, kpt=  0.0000  0.0000  0.0000 (reduced coord)
   0.00000    0.00000    0.00000   -0.00000   -0.00000    0.00000    0.00000    0.00000
  -0.00000   -0.00000    0.00000    0.00000    0.00000    0.00000   -0.00000   -0.00000
   0.00000    0.00000    0.00000   -0.00000    0.00000    0.00000   -0.00000    0.00000
   0.00001
 prteigrs : prtvol=0 or 1, do not print more k-points.
 
 
 Eight components of 2nd-order total energy (hartree) are
 1,2,3: 0th-order hamiltonian combined with 1st-order wavefunctions
     kin0=   5.79839783E+01 eigvalue=  -1.32499560E+00  local=  -3.75477732E+01
 4,5,6: 1st-order hamiltonian combined with 1st and 0th-order wfs
     kin1=  -6.03973325E+01  Hartree=   0.00000000E+00     xc=   0.00000000E+00
 7,8,9: eventually, occupation + non-local contributions
    edocc=   8.21474888E+00     enl0=   4.08104967E+00   enl1=  -2.41668372E+00
 1-9 gives the relaxation energy (to be shifted if some occ is /=2.0)
   erelax=  -3.14070081E+01
  No Ewald or frozen-wf contrib.: the relaxation energy is the total one
 2DEtotal=   -0.3140700809E+02 Ha. Also 2DEtotal=   -0.854628152957E+03 eV
    (  non-var. 2DEtotal :   -3.1407008087E+01 Ha)
 
--------------------------------------------------------------------------------
 Perturbation wavevector (in red.coord.)   0.000000  0.000000  0.000000
 Perturbation : derivative vs k along direction   2
 The set of symmetries contains only one element for this perturbation.
 symkpt : not enough symmetry to change the number of k points.
 
--------------------------------------------------------------------------------
 
--------------------------------------------------------------------------------
 
 Initialisation of the first-order wave-functions :
  ireadwf=   0

--- !BeginCycle
iteration_state: {dtset: 1, }
solver: {iscf: 7, nstep: 2000, nline: 4, wfoptalg: 0, }
tolerances: {tolwfr: 1.00E-20, }
...
 
     iter   2DEtotal(Ha)        deltaE(Ha) residm    vres2
-ETOT  1  -31.345863300867     -3.135E+01 6.979E-02 0.000E+00
 ETOT  2  -31.401633536381     -5.577E-02 3.900E-02 0.000E+00
 ETOT  3  -31.405643320647     -4.010E-03 1.677E-02 0.000E+00
 ETOT  4  -31.406611969906     -9.686E-04 2.036E-02 0.000E+00
 ETOT  5  -31.406886647182     -2.747E-04 1.118E-02 0.000E+00
 ETOT  6  -31.406966566246     -7.992E-05 1.725E-02 0.000E+00
 ETOT  7  -31.406990012654     -2.345E-05 7.588E-03 0.000E+00
 ETOT  8  -31.406996905178     -6.893E-06 1.310E-02 0.000E+00
 ETOT  9  -31.406998936229     -2.031E-06 5.117E-03 0.000E+00
 ETOT 10  -31.406999535051     -5.988E-07 9.285E-03 0.000E+00
 ETOT 11  -31.406999711846     -1.768E-07 3.451E-03 0.000E+00
 ETOT 12  -31.406999764059     -5.221E-08 6.416E-03 0.000E+00
 ETOT 13  -31.406999779494     -1.543E-08 2.333E-03 0.000E+00
 ETOT 14  -31.406999784057     -4.564E-09 4.404E-03 0.000E+00
 ETOT 15  -31.406999785408     -1.350E-09 1.565E-03 0.000E+00
 ETOT 16  -31.406999785808     -3.997E-10 3.094E-03 0.000E+00
 ETOT 17  -31.406999785926     -1.185E-10 1.082E-03 0.000E+00
 ETOT 18  -31.406999785961     -3.512E-11 2.173E-03 0.000E+00
 ETOT 19  -31.406999785972     -1.042E-11 7.492E-04 0.000E+00
 ETOT 20  -31.406999785975     -3.094E-12 1.525E-03 0.000E+00
 ETOT 21  -31.406999785976     -1.009E-12 5.193E-04 0.000E+00
 ETOT 22  -31.406999785976     -2.345E-13 1.069E-03 0.000E+00
 ETOT 23  -31.406999785976     -5.329E-14 3.604E-04 0.000E+00
 ETOT 24  -31.406999785976     -4.263E-14 7.490E-04 0.000E+00
 ETOT 25  -31.406999785976     -3.197E-14 2.504E-04 0.000E+00
 ETOT 26  -31.406999785976      2.487E-14 5.242E-04 0.000E+00
 ETOT 27  -31.406999785976     -4.263E-14 1.741E-04 0.000E+00
 ETOT 28  -31.406999785976      4.263E-14 3.665E-04 0.000E+00
 ETOT 29  -31.406999785976      0.000E+00 1.211E-04 0.000E+00
 ETOT 30  -31.406999785976      2.842E-14 2.560E-04 0.000E+00
 ETOT 31  -31.406999785976     -5.329E-14 8.429E-05 0.000E+00
 ETOT 32  -31.406999785976      2.487E-14 1.787E-04 0.000E+00
 ETOT 33  -31.406999785976      3.553E-15 5.868E-05 0.000E+00
 ETOT 34  -31.406999785976     -2.132E-14 1.247E-04 0.000E+00
 ETOT 35  -31.406999785976      3.197E-14 4.087E-05 0.000E+00
 ETOT 36  -31.406999785976     -1.066E-14 8.699E-05 0.000E+00
 ETOT 37  -31.406999785976     -3.553E-15 2.847E-05 0.000E+00
 ETOT 38  -31.406999785976      1.776E-14 6.066E-05 0.000E+00
 ETOT 39  -31.406999785976     -7.105E-15 1.983E-05 0.000E+00
 ETOT 40  -31.406999785976     -1.776E-14 4.230E-05 0.000E+00
 ETOT 41  -31.406999785976     -1.066E-14 1.382E-05 0.000E+00
 ETOT 42  -31.406999785976      1.776E-14 2.949E-05 0.000E+00
 ETOT 43  -31.406999785976     -3.553E-15 9.632E-06 0.000E+00
 ETOT 44  -31.406999785976      0.000E+00 2.056E-05 0.000E+00
 ETOT 45  -31.406999785976      7.105E-15 6.714E-06 0.000E+00
 ETOT 46  -31.406999785976     -3.553E-15 1.434E-05 0.000E+00
 ETOT 47  -31.406999785976      0.000E+00 4.680E-06 0.000E+00
 ETOT 48  -31.406999785976     -3.553E-15 9.997E-06 0.000E+00
 ETOT 49  -31.406999785976      3.553E-15 3.263E-06 0.000E+00
 ETOT 50  -31.406999785976      0.000E+00 6.971E-06 0.000E+00
 ETOT 51  -31.406999785976      0.000E+00 2.275E-06 0.000E+00
 ETOT 52  -31.406999785976      0.000E+00 4.862E-06 0.000E+00
 ETOT 53  -31.406999785976      3.553E-15 1.586E-06 0.000E+00
 ETOT 54  -31.406999785976     -3.553E-15 3.391E-06 0.000E+00
 ETOT 55  -31.406999785976      0.000E+00 1.106E-06 0.000E+00
 ETOT 56  -31.406999785976      0.000E+00 2.365E-06 0.000E+00
 ETOT 57  -31.406999785976     -3.553E-15 7.714E-07 0.000E+00
 ETOT 58  -31.406999785976      1.066E-14 1.649E-06 0.000E+00
 ETOT 59  -31.406999785976     -3.553E-15 5.380E-07 0.000E+00
 ETOT 60  -31.406999785976      7.105E-15 1.151E-06 0.000E+00
 ETOT 61  -31.406999785976     -1.776E-14 3.753E-07 0.000E+00
 ETOT 62  -31.406999785976      1.066E-14 8.026E-07 0.000E+00
 ETOT 63  -31.406999785976      3.553E-15 2.617E-07 0.000E+00
 ETOT 64  -31.406999785976     -7.105E-15 5.599E-07 0.000E+00
 ETOT 65  -31.406999785976      0.000E+00 1.826E-07 0.000E+00
 ETOT 66  -31.406999785976     -3.553E-15 3.906E-07 0.000E+00
 ETOT 67  -31.406999785976      1.776E-14 1.274E-07 0.000E+00
 ETOT 68  -31.406999785976     -3.553E-15 2.725E-07 0.000E+00
 ETOT 69  -31.406999785976      0.000E+00 8.884E-08 0.000E+00
 ETOT 70  -31.406999785976      0.000E+00 1.901E-07 0.000E+00
 ETOT 71  -31.406999785976      7.105E-15 6.198E-08 0.000E+00
 ETOT 72  -31.406999785976      0.000E+00 1.327E-07 0.000E+00
 ETOT 73  -31.406999785976     -1.776E-14 4.324E-08 0.000E+00
 ETOT 74  -31.406999785976      3.553E-15 9.257E-08 0.000E+00
 ETOT 75  -31.406999785976      3.553E-15 3.016E-08 0.000E+00
 ETOT 76  -31.406999785976     -3.553E-15 6.459E-08 0.000E+00
 ETOT 77  -31.406999785976     -1.421E-14 2.104E-08 0.000E+00
 ETOT 78  -31.406999785976      1.421E-14 4.507E-08 0.000E+00
 ETOT 79  -31.406999785976      1.421E-14 1.468E-08 0.000E+00
 ETOT 80  -31.406999785976     -1.066E-14 3.145E-08 0.000E+00
 ETOT 81  -31.406999785976      1.421E-14 1.024E-08 0.000E+00
 ETOT 82  -31.406999785976      0.000E+00 2.195E-08 0.000E+00
 ETOT 83  -31.406999785976      0.000E+00 7.146E-09 0.000E+00
 ETOT 84  -31.406999785976      0.000E+00 1.531E-08 0.000E+00
 ETOT 85  -31.406999785976     -1.421E-14 4.986E-09 0.000E+00
 ETOT 86  -31.406999785976      3.553E-15 1.069E-08 0.000E+00
 ETOT 87  -31.406999785976     -1.421E-14 3.479E-09 0.000E+00
 ETOT 88  -31.406999785976      1.421E-14 7.458E-09 0.000E+00
 ETOT 89  -31.406999785976      3.553E-15 2.427E-09 0.000E+00
 ETOT 90  -31.406999785976      3.553E-15 5.205E-09 0.000E+00
 ETOT 91  -31.406999785976     -1.421E-14 1.694E-09 0.000E+00
 ETOT 92  -31.406999785976      1.066E-14 3.633E-09 0.000E+00
 ETOT 93  -31.406999785976      0.000E+00 1.182E-09 0.000E+00
 ETOT 94  -31.406999785976     -3.553E-15 2.535E-09 0.000E+00
 ETOT 95  -31.406999785976     -1.066E-14 8.245E-10 0.000E+00
 ETOT 96  -31.406999785976      1.066E-14 1.769E-09 0.000E+00
 ETOT 97  -31.406999785976      3.553E-15 5.753E-10 0.000E+00
 ETOT 98  -31.406999785976     -3.553E-15 1.235E-09 0.000E+00
 ETOT 99  -31.406999785976      0.000E+00 4.014E-10 0.000E+00
 ETOT  100  -31.406999785976     -7.105E-15 8.619E-10 0.000E+00
 ETOT  101  -31.406999785976      1.066E-14 2.801E-10 0.000E+00
 ETOT  102  -31.406999785976     -1.066E-14 6.016E-10 0.000E+00
 ETOT  103  -31.406999785976      0.000E+00 1.955E-10 0.000E+00
 ETOT  104  -31.406999785976     -1.066E-14 4.199E-10 0.000E+00
 ETOT  105  -31.406999785976      3.553E-15 1.364E-10 0.000E+00
 ETOT  106  -31.406999785976      0.000E+00 2.931E-10 0.000E+00
 ETOT  107  -31.406999785976      2.132E-14 9.517E-11 0.000E+00
 ETOT  108  -31.406999785976     -2.132E-14 2.046E-10 0.000E+00
 ETOT  109  -31.406999785976      0.000E+00 6.641E-11 0.000E+00
 ETOT  110  -31.406999785976      3.553E-15 1.428E-10 0.000E+00
 ETOT  111  -31.406999785976      0.000E+00 4.634E-11 0.000E+00
 ETOT  112  -31.406999785976      0.000E+00 9.968E-11 0.000E+00
 ETOT  113  -31.406999785976     -7.105E-15 3.234E-11 0.000E+00
 ETOT  114  -31.406999785976      2.132E-14 6.958E-11 0.000E+00
 ETOT  115  -31.406999785976      0.000E+00 2.257E-11 0.000E+00
 ETOT  116  -31.406999785976      3.553E-15 4.857E-11 0.000E+00
 ETOT  117  -31.406999785976      0.000E+00 1.575E-11 0.000E+00
 ETOT  118  -31.406999785976      0.000E+00 3.390E-11 0.000E+00
 ETOT  119  -31.406999785976     -1.421E-14 1.099E-11 0.000E+00
 ETOT  120  -31.406999785976      0.000E+00 2.367E-11 0.000E+00
 ETOT  121  -31.406999785976     -7.105E-15 7.669E-12 0.000E+00
 ETOT  122  -31.406999785976      2.842E-14 1.652E-11 0.000E+00
 ETOT  123  -31.406999785976     -7.105E-15 5.352E-12 0.000E+00
 ETOT  124  -31.406999785976      0.000E+00 1.153E-11 0.000E+00
 ETOT  125  -31.406999785976     -7.105E-15 3.735E-12 0.000E+00
 ETOT  126  -31.406999785976      0.000E+00 8.051E-12 0.000E+00
 ETOT  127  -31.406999785976      0.000E+00 2.606E-12 0.000E+00
 ETOT  128  -31.406999785976      0.000E+00 5.620E-12 0.000E+00
 ETOT  129  -31.406999785976      7.105E-15 1.819E-12 0.000E+00
 ETOT  130  -31.406999785976      0.000E+00 3.924E-12 0.000E+00
 ETOT  131  -31.406999785976      0.000E+00 1.269E-12 0.000E+00
 ETOT  132  -31.406999785976      3.553E-15 2.739E-12 0.000E+00
 ETOT  133  -31.406999785976     -1.066E-14 8.858E-13 0.000E+00
 ETOT  134  -31.406999785976     -3.553E-15 1.912E-12 0.000E+00
 ETOT  135  -31.406999785976      1.421E-14 6.182E-13 0.000E+00
 ETOT  136  -31.406999785976     -1.776E-14 1.335E-12 0.000E+00
 ETOT  137  -31.406999785976      1.421E-14 4.314E-13 0.000E+00
 ETOT  138  -31.406999785976      0.000E+00 9.320E-13 0.000E+00
 ETOT  139  -31.406999785976     -3.553E-15 3.011E-13 0.000E+00
 ETOT  140  -31.406999785976      3.553E-15 6.506E-13 0.000E+00
 ETOT  141  -31.406999785976      1.421E-14 2.101E-13 0.000E+00
 ETOT  142  -31.406999785976     -2.487E-14 4.542E-13 0.000E+00
 ETOT  143  -31.406999785976      3.553E-15 1.467E-13 0.000E+00
 ETOT  144  -31.406999785976     -1.776E-14 3.171E-13 0.000E+00
 ETOT  145  -31.406999785976     -3.553E-15 1.023E-13 0.000E+00
 ETOT  146  -31.406999785976      0.000E+00 2.214E-13 0.000E+00
 ETOT  147  -31.406999785976      1.421E-14 7.143E-14 0.000E+00
 ETOT  148  -31.406999785976     -3.553E-15 1.546E-13 0.000E+00
 ETOT  149  -31.406999785976     -1.776E-14 4.985E-14 0.000E+00
 ETOT  150  -31.406999785976      1.776E-14 1.079E-13 0.000E+00
 ETOT  151  -31.406999785976      7.105E-15 3.479E-14 0.000E+00
 ETOT  152  -31.406999785976     -7.105E-15 7.534E-14 0.000E+00
 ETOT  153  -31.406999785976     -1.066E-14 2.428E-14 0.000E+00
 ETOT  154  -31.406999785976      3.553E-15 5.260E-14 0.000E+00
 ETOT  155  -31.406999785976      0.000E+00 1.695E-14 0.000E+00
 ETOT  156  -31.406999785976      2.842E-14 3.672E-14 0.000E+00
 ETOT  157  -31.406999785976     -3.197E-14 1.183E-14 0.000E+00
 ETOT  158  -31.406999785976      2.487E-14 2.564E-14 0.000E+00
 ETOT  159  -31.406999785976     -3.553E-15 8.255E-15 0.000E+00
 ETOT  160  -31.406999785976      0.000E+00 1.790E-14 0.000E+00
 ETOT  161  -31.406999785976     -1.066E-14 5.761E-15 0.000E+00
 ETOT  162  -31.406999785976     -3.553E-15 1.250E-14 0.000E+00
 ETOT  163  -31.406999785976      1.776E-14 4.021E-15 0.000E+00
 ETOT  164  -31.406999785976     -1.421E-14 8.726E-15 0.000E+00
 ETOT  165  -31.406999785976      1.066E-14 2.806E-15 0.000E+00
 ETOT  166  -31.406999785976     -7.105E-15 6.092E-15 0.000E+00
 ETOT  167  -31.406999785976      0.000E+00 1.959E-15 0.000E+00
 ETOT  168  -31.406999785976      1.421E-14 4.254E-15 0.000E+00
 ETOT  169  -31.406999785976      0.000E+00 1.367E-15 0.000E+00
 ETOT  170  -31.406999785976     -1.421E-14 2.970E-15 0.000E+00
 ETOT  171  -31.406999785976      7.105E-15 9.541E-16 0.000E+00
 ETOT  172  -31.406999785976      3.553E-15 2.074E-15 0.000E+00
 ETOT  173  -31.406999785976     -7.105E-15 6.659E-16 0.000E+00
 ETOT  174  -31.406999785976     -7.105E-15 1.448E-15 0.000E+00
 ETOT  175  -31.406999785976      1.776E-14 4.648E-16 0.000E+00
 ETOT  176  -31.406999785976     -2.132E-14 1.011E-15 0.000E+00
 ETOT  177  -31.406999785976      7.105E-15 3.244E-16 0.000E+00
 ETOT  178  -31.406999785976      2.132E-14 7.058E-16 0.000E+00
 ETOT  179  -31.406999785976      0.000E+00 2.264E-16 0.000E+00
 ETOT  180  -31.406999785976      0.000E+00 4.928E-16 0.000E+00
 ETOT  181  -31.406999785976     -1.421E-14 1.580E-16 0.000E+00
 ETOT  182  -31.406999785976      1.421E-14 3.441E-16 0.000E+00
 ETOT  183  -31.406999785976      1.066E-14 1.103E-16 0.000E+00
 ETOT  184  -31.406999785976     -7.105E-15 2.402E-16 0.000E+00
 ETOT  185  -31.406999785976     -3.553E-15 7.699E-17 0.000E+00
 ETOT  186  -31.406999785976      7.105E-15 1.677E-16 0.000E+00
 ETOT  187  -31.406999785976     -3.553E-15 5.373E-17 0.000E+00
 ETOT  188  -31.406999785976     -1.776E-14 1.171E-16 0.000E+00
 ETOT  189  -31.406999785976      1.421E-14 3.750E-17 0.000E+00
 ETOT  190  -31.406999785976     -2.487E-14 8.178E-17 0.000E+00
 ETOT  191  -31.406999785976      3.197E-14 2.618E-17 0.000E+00
 ETOT  192  -31.406999785976     -1.066E-14 5.710E-17 0.000E+00
 ETOT  193  -31.406999785976     -7.105E-15 1.827E-17 0.000E+00
 ETOT  194  -31.406999785976      1.066E-14 3.987E-17 0.000E+00
 ETOT  195  -31.406999785976     -3.553E-15 1.275E-17 0.000E+00
 ETOT  196  -31.406999785976      3.553E-15 2.784E-17 0.000E+00
 ETOT  197  -31.406999785976     -1.776E-14 8.901E-18 0.000E+00
 ETOT  198  -31.406999785976      2.487E-14 1.944E-17 0.000E+00
 ETOT  199  -31.406999785976     -2.132E-14 6.213E-18 0.000E+00
 ETOT  200  -31.406999785976     -1.776E-14 1.357E-17 0.000E+00
 ETOT  201  -31.406999785976      7.105E-15 4.337E-18 0.000E+00
 ETOT  202  -31.406999785976      0.000E+00 9.477E-18 0.000E+00
 ETOT  203  -31.406999785976      3.553E-15 3.027E-18 0.000E+00
 ETOT  204  -31.406999785976     -1.066E-14 6.617E-18 0.000E+00
 ETOT  205  -31.406999785976      1.776E-14 2.113E-18 0.000E+00
 ETOT  206  -31.406999785976     -1.776E-14 4.620E-18 0.000E+00
 ETOT  207  -31.406999785976      3.553E-15 1.475E-18 0.000E+00
 ETOT  208  -31.406999785976      0.000E+00 3.226E-18 0.000E+00
 ETOT  209  -31.406999785976     -3.553E-15 1.029E-18 0.000E+00
 ETOT  210  -31.406999785976     -3.553E-15 2.253E-18 0.000E+00
 ETOT  211  -31.406999785976      1.776E-14 7.185E-19 0.000E+00
 ETOT  212  -31.406999785976     -1.066E-14 1.573E-18 0.000E+00
 ETOT  213  -31.406999785976      0.000E+00 5.015E-19 0.000E+00
 ETOT  214  -31.406999785976      0.000E+00 1.098E-18 0.000E+00
 ETOT  215  -31.406999785976      1.066E-14 3.501E-19 0.000E+00
 ETOT  216  -31.406999785976      0.000E+00 7.670E-19 0.000E+00
 ETOT  217  -31.406999785976      3.553E-15 2.444E-19 0.000E+00
 ETOT  218  -31.406999785976     -3.553E-15 5.355E-19 0.000E+00
 ETOT  219  -31.406999785976      0.000E+00 1.706E-19 0.000E+00
 ETOT  220  -31.406999785976      0.000E+00 3.740E-19 0.000E+00
 ETOT  221  -31.406999785976     -1.776E-14 1.191E-19 0.000E+00
 ETOT  222  -31.406999785976      3.553E-15 2.612E-19 0.000E+00
 ETOT  223  -31.406999785976      2.842E-14 8.311E-20 0.000E+00
 ETOT  224  -31.406999785976     -3.553E-15 1.823E-19 0.000E+00
 ETOT  225  -31.406999785976     -2.487E-14 5.801E-20 0.000E+00
 ETOT  226  -31.406999785976      0.000E+00 1.274E-19 0.000E+00
 ETOT  227  -31.406999785976      1.066E-14 4.050E-20 0.000E+00
 ETOT  228  -31.406999785976     -3.553E-15 8.892E-20 0.000E+00
 ETOT  229  -31.406999785976      7.105E-15 2.827E-20 0.000E+00
 ETOT  230  -31.406999785976      0.000E+00 6.210E-20 0.000E+00
 ETOT  231  -31.406999785976     -3.553E-15 1.973E-20 0.000E+00
 ETOT  232  -31.406999785976      0.000E+00 4.337E-20 0.000E+00
 ETOT  233  -31.406999785976      7.105E-15 1.377E-20 0.000E+00
 ETOT  234  -31.406999785976     -7.105E-15 3.028E-20 0.000E+00
 ETOT  235  -31.406999785976      7.105E-15 9.898E-21 0.000E+00
 
 At SCF step  235   max residual=  9.90E-21 < tolwfr=  1.00E-20 =>converged.
================================================================================
 
 ----iterations are completed or convergence reached----
 
 dfpt_looppert: DFPT cycle converged with prtwf=-1. Will skip output of the 1st-order WFK file.
 dfpt_looppert : ek2=    5.2680631136E+01
          f-sum rule ratio=    1.1464804871E+00
 prteigrs : about to open file /scratch/users/j/a/jabreu/flow_simple_remain_atoms/flow/w249/t1/tmpdata/tmp_1WF1_EIG
 Expectation of eigenvalue derivatives (hartree) for nkpt=   2  k points:
  (in case of degenerate eigenvalues, averaged derivative)
 kpt#   1, nband= 25, wtk=  0.50000, kpt=  0.0000  0.0000  0.0000 (reduced coord)
   0.00000   -0.00000    0.00000    0.00000    0.00000    0.00000   -0.00000   -0.00000
  -0.00000   -0.00000   -0.00000   -0.00000   -0.00000    0.00000   -0.00000   -0.00000
   0.00000   -0.00000   -0.00000    0.00000    0.00000    0.00000    0.00000   -0.00000
   0.00001
 prteigrs : prtvol=0 or 1, do not print more k-points.
 
 
 Eight components of 2nd-order total energy (hartree) are
 1,2,3: 0th-order hamiltonian combined with 1st-order wavefunctions
     kin0=   5.80664460E+01 eigvalue=  -1.32530640E+00  local=  -3.75831754E+01
 4,5,6: 1st-order hamiltonian combined with 1st and 0th-order wfs
     kin1=  -6.03973156E+01  Hartree=   0.00000000E+00     xc=   0.00000000E+00
 7,8,9: eventually, occupation + non-local contributions
    edocc=   8.21157217E+00     enl0=   4.03746345E+00   enl1=  -2.41668393E+00
 1-9 gives the relaxation energy (to be shifted if some occ is /=2.0)
   erelax=  -3.14069998E+01
  No Ewald or frozen-wf contrib.: the relaxation energy is the total one
 2DEtotal=   -0.3140699979E+02 Ha. Also 2DEtotal=   -0.854627927067E+03 eV
    (  non-var. 2DEtotal :   -3.1406999786E+01 Ha)
 
--------------------------------------------------------------------------------
 Perturbation wavevector (in red.coord.)   0.000000  0.000000  0.000000
 Perturbation : derivative vs k along direction   3
 The set of symmetries contains only one element for this perturbation.
 symkpt : not enough symmetry to change the number of k points.
 
--------------------------------------------------------------------------------
 
--------------------------------------------------------------------------------
 
 Initialisation of the first-order wave-functions :
  ireadwf=   0

--- !BeginCycle
iteration_state: {dtset: 1, }
solver: {iscf: 7, nstep: 2000, nline: 4, wfoptalg: 0, }
tolerances: {tolwfr: 1.00E-20, }
...
 
     iter   2DEtotal(Ha)        deltaE(Ha) residm    vres2
-ETOT  1  -29.807165044322     -2.981E+01 9.194E-02 0.000E+00
 ETOT  2  -29.857546330026     -5.038E-02 5.912E-02 0.000E+00
 ETOT  3  -29.861398128011     -3.852E-03 1.789E-02 0.000E+00
 ETOT  4  -29.862304474124     -9.063E-04 2.357E-02 0.000E+00
 ETOT  5  -29.862553881340     -2.494E-04 1.349E-02 0.000E+00
 ETOT  6  -29.862625110643     -7.123E-05 1.572E-02 0.000E+00
 ETOT  7  -29.862645825886     -2.072E-05 9.582E-03 0.000E+00
 ETOT  8  -29.862651909723     -6.084E-06 1.207E-02 0.000E+00
 ETOT  9  -29.862653712683     -1.803E-06 6.600E-03 0.000E+00
 ETOT 10  -29.862654250922     -5.382E-07 8.787E-03 0.000E+00
 ETOT 11  -29.862654412867     -1.619E-07 4.591E-03 0.000E+00
 ETOT 12  -29.862654461937     -4.907E-08 6.137E-03 0.000E+00
 ETOT 13  -29.862654476915     -1.498E-08 3.175E-03 0.000E+00
 ETOT 14  -29.862654481519     -4.603E-09 4.459E-03 0.000E+00
 ETOT 15  -29.862654482943     -1.424E-09 2.270E-03 0.000E+00
 ETOT 16  -29.862654483386     -4.434E-10 3.243E-03 0.000E+00
 ETOT 17  -29.862654483526     -1.393E-10 1.626E-03 0.000E+00
 ETOT 18  -29.862654483570     -4.409E-11 2.355E-03 0.000E+00
 ETOT 19  -29.862654483584     -1.427E-11 1.166E-03 0.000E+00
 ETOT 20  -29.862654483589     -4.622E-12 1.709E-03 0.000E+00
 ETOT 21  -29.862654483590     -1.563E-12 8.382E-04 0.000E+00
 ETOT 22  -29.862654483591     -4.761E-13 1.239E-03 0.000E+00
 ETOT 23  -29.862654483591     -2.274E-13 6.031E-04 0.000E+00
 ETOT 24  -29.862654483591     -2.487E-14 8.969E-04 0.000E+00
 ETOT 25  -29.862654483591     -1.066E-14 4.343E-04 0.000E+00
 ETOT 26  -29.862654483591     -2.487E-14 6.488E-04 0.000E+00
 ETOT 27  -29.862654483591     -7.105E-15 3.129E-04 0.000E+00
 ETOT 28  -29.862654483591     -1.421E-14 4.690E-04 0.000E+00
 ETOT 29  -29.862654483591      3.553E-15 2.256E-04 0.000E+00
 ETOT 30  -29.862654483591     -7.105E-15 3.388E-04 0.000E+00
 ETOT 31  -29.862654483591      1.421E-14 1.627E-04 0.000E+00
 ETOT 32  -29.862654483591     -2.487E-14 2.447E-04 0.000E+00
 ETOT 33  -29.862654483591      4.619E-14 1.173E-04 0.000E+00
 ETOT 34  -29.862654483591     -2.487E-14 1.767E-04 0.000E+00
 ETOT 35  -29.862654483591      7.105E-15 8.467E-05 0.000E+00
 ETOT 36  -29.862654483591      1.066E-14 1.277E-04 0.000E+00
 ETOT 37  -29.862654483591      1.066E-14 6.112E-05 0.000E+00
 ETOT 38  -29.862654483591     -2.132E-14 9.221E-05 0.000E+00
 ETOT 39  -29.862654483591      1.421E-14 4.413E-05 0.000E+00
 ETOT 40  -29.862654483591      0.000E+00 6.663E-05 0.000E+00
 ETOT 41  -29.862654483591      7.105E-15 3.187E-05 0.000E+00
 ETOT 42  -29.862654483591     -1.421E-14 4.816E-05 0.000E+00
 ETOT 43  -29.862654483591      1.066E-14 2.302E-05 0.000E+00
 ETOT 44  -29.862654483591      0.000E+00 3.481E-05 0.000E+00
 ETOT 45  -29.862654483591      0.000E+00 1.663E-05 0.000E+00
 ETOT 46  -29.862654483591     -3.553E-15 2.517E-05 0.000E+00
 ETOT 47  -29.862654483591      1.066E-14 1.202E-05 0.000E+00
 ETOT 48  -29.862654483591     -1.066E-14 1.820E-05 0.000E+00
 ETOT 49  -29.862654483591      1.066E-14 8.688E-06 0.000E+00
 ETOT 50  -29.862654483591      0.000E+00 1.317E-05 0.000E+00
 ETOT 51  -29.862654483591     -7.105E-15 6.281E-06 0.000E+00
 ETOT 52  -29.862654483591      1.066E-14 9.524E-06 0.000E+00
 ETOT 53  -29.862654483591     -3.553E-15 4.541E-06 0.000E+00
 ETOT 54  -29.862654483591     -1.066E-14 6.890E-06 0.000E+00
 ETOT 55  -29.862654483591     -3.553E-15 3.283E-06 0.000E+00
 ETOT 56  -29.862654483591      0.000E+00 4.985E-06 0.000E+00
 ETOT 57  -29.862654483591      0.000E+00 2.374E-06 0.000E+00
 ETOT 58  -29.862654483591      1.421E-14 3.606E-06 0.000E+00
 ETOT 59  -29.862654483591      0.000E+00 1.717E-06 0.000E+00
 ETOT 60  -29.862654483591     -7.105E-15 2.609E-06 0.000E+00
 ETOT 61  -29.862654483591     -3.553E-15 1.242E-06 0.000E+00
 ETOT 62  -29.862654483591      3.553E-15 1.888E-06 0.000E+00
 ETOT 63  -29.862654483591      1.066E-14 8.979E-07 0.000E+00
 ETOT 64  -29.862654483591      7.105E-15 1.366E-06 0.000E+00
 ETOT 65  -29.862654483591     -1.421E-14 6.495E-07 0.000E+00
 ETOT 66  -29.862654483591     -1.066E-14 9.883E-07 0.000E+00
 ETOT 67  -29.862654483591      7.105E-15 4.698E-07 0.000E+00
 ETOT 68  -29.862654483591      7.105E-15 7.151E-07 0.000E+00
 ETOT 69  -29.862654483591      7.105E-15 3.398E-07 0.000E+00
 ETOT 70  -29.862654483591     -1.421E-14 5.174E-07 0.000E+00
 ETOT 71  -29.862654483591      7.105E-15 2.458E-07 0.000E+00
 ETOT 72  -29.862654483591     -3.553E-15 3.744E-07 0.000E+00
 ETOT 73  -29.862654483591     -3.553E-15 1.779E-07 0.000E+00
 ETOT 74  -29.862654483591     -3.553E-15 2.709E-07 0.000E+00
 ETOT 75  -29.862654483591     -3.553E-15 1.287E-07 0.000E+00
 ETOT 76  -29.862654483591      3.553E-15 1.960E-07 0.000E+00
 ETOT 77  -29.862654483591     -1.776E-14 9.310E-08 0.000E+00
 ETOT 78  -29.862654483591      3.553E-15 1.419E-07 0.000E+00
 ETOT 79  -29.862654483591      0.000E+00 6.736E-08 0.000E+00
 ETOT 80  -29.862654483591      7.105E-15 1.027E-07 0.000E+00
 ETOT 81  -29.862654483591      1.066E-14 4.874E-08 0.000E+00
 ETOT 82  -29.862654483591      3.553E-15 7.429E-08 0.000E+00
 ETOT 83  -29.862654483591     -7.105E-15 3.527E-08 0.000E+00
 ETOT 84  -29.862654483591      0.000E+00 5.376E-08 0.000E+00
 ETOT 85  -29.862654483591      0.000E+00 2.552E-08 0.000E+00
 ETOT 86  -29.862654483591     -3.553E-15 3.890E-08 0.000E+00
 ETOT 87  -29.862654483591      0.000E+00 1.847E-08 0.000E+00
 ETOT 88  -29.862654483591     -3.553E-15 2.815E-08 0.000E+00
 ETOT 89  -29.862654483591     -7.105E-15 1.337E-08 0.000E+00
 ETOT 90  -29.862654483591      0.000E+00 2.038E-08 0.000E+00
 ETOT 91  -29.862654483591     -7.105E-15 9.674E-09 0.000E+00
 ETOT 92  -29.862654483591      1.776E-14 1.475E-08 0.000E+00
 ETOT 93  -29.862654483591      3.553E-15 7.001E-09 0.000E+00
 ETOT 94  -29.862654483591     -2.842E-14 1.067E-08 0.000E+00
 ETOT 95  -29.862654483591      2.132E-14 5.067E-09 0.000E+00
 ETOT 96  -29.862654483591     -1.421E-14 7.724E-09 0.000E+00
 ETOT 97  -29.862654483591      0.000E+00 3.667E-09 0.000E+00
 ETOT 98  -29.862654483591      1.066E-14 5.590E-09 0.000E+00
 ETOT 99  -29.862654483591      7.105E-15 2.654E-09 0.000E+00
 ETOT  100  -29.862654483591     -1.776E-14 4.046E-09 0.000E+00
 ETOT  101  -29.862654483591      3.553E-15 1.921E-09 0.000E+00
 ETOT  102  -29.862654483591     -7.105E-15 2.928E-09 0.000E+00
 ETOT  103  -29.862654483591     -3.553E-15 1.391E-09 0.000E+00
 ETOT  104  -29.862654483591      3.553E-15 2.119E-09 0.000E+00
 ETOT  105  -29.862654483591      1.066E-14 1.007E-09 0.000E+00
 ETOT  106  -29.862654483591     -1.421E-14 1.534E-09 0.000E+00
 ETOT  107  -29.862654483591      2.842E-14 7.286E-10 0.000E+00
 ETOT  108  -29.862654483591      0.000E+00 1.110E-09 0.000E+00
 ETOT  109  -29.862654483591     -1.066E-14 5.274E-10 0.000E+00
 ETOT  110  -29.862654483591      3.553E-15 8.037E-10 0.000E+00
 ETOT  111  -29.862654483591      0.000E+00 3.817E-10 0.000E+00
 ETOT  112  -29.862654483591      3.553E-15 5.817E-10 0.000E+00
 ETOT  113  -29.862654483591     -3.553E-15 2.763E-10 0.000E+00
 ETOT  114  -29.862654483591     -1.421E-14 4.211E-10 0.000E+00
 ETOT  115  -29.862654483591      0.000E+00 2.000E-10 0.000E+00
 ETOT  116  -29.862654483591      0.000E+00 3.048E-10 0.000E+00
 ETOT  117  -29.862654483591      0.000E+00 1.448E-10 0.000E+00
 ETOT  118  -29.862654483591      1.776E-14 2.206E-10 0.000E+00
 ETOT  119  -29.862654483591     -1.066E-14 1.048E-10 0.000E+00
 ETOT  120  -29.862654483591      1.066E-14 1.597E-10 0.000E+00
 ETOT  121  -29.862654483591     -1.066E-14 7.587E-11 0.000E+00
 ETOT  122  -29.862654483591     -1.066E-14 1.156E-10 0.000E+00
 ETOT  123  -29.862654483591     -3.553E-15 5.492E-11 0.000E+00
 ETOT  124  -29.862654483591      7.105E-15 8.369E-11 0.000E+00
 ETOT  125  -29.862654483591      3.553E-15 3.976E-11 0.000E+00
 ETOT  126  -29.862654483591     -1.421E-14 6.058E-11 0.000E+00
 ETOT  127  -29.862654483591      1.066E-14 2.878E-11 0.000E+00
 ETOT  128  -29.862654483591      0.000E+00 4.386E-11 0.000E+00
 ETOT  129  -29.862654483591      1.421E-14 2.084E-11 0.000E+00
 ETOT  130  -29.862654483591     -1.776E-14 3.175E-11 0.000E+00
 ETOT  131  -29.862654483591      1.066E-14 1.508E-11 0.000E+00
 ETOT  132  -29.862654483591      0.000E+00 2.298E-11 0.000E+00
 ETOT  133  -29.862654483591      3.553E-15 1.092E-11 0.000E+00
 ETOT  134  -29.862654483591     -3.553E-15 1.664E-11 0.000E+00
 ETOT  135  -29.862654483591      3.553E-15 7.905E-12 0.000E+00
 ETOT  136  -29.862654483591      3.553E-15 1.204E-11 0.000E+00
 ETOT  137  -29.862654483591     -3.553E-15 5.723E-12 0.000E+00
 ETOT  138  -29.862654483591     -1.421E-14 8.720E-12 0.000E+00
 ETOT  139  -29.862654483591      0.000E+00 4.143E-12 0.000E+00
 ETOT  140  -29.862654483591      2.132E-14 6.313E-12 0.000E+00
 ETOT  141  -29.862654483591     -7.105E-15 2.999E-12 0.000E+00
 ETOT  142  -29.862654483591      7.105E-15 4.570E-12 0.000E+00
 ETOT  143  -29.862654483591      3.553E-15 2.171E-12 0.000E+00
 ETOT  144  -29.862654483591      7.105E-15 3.308E-12 0.000E+00
 ETOT  145  -29.862654483591     -1.421E-14 1.572E-12 0.000E+00
 ETOT  146  -29.862654483591      1.421E-14 2.395E-12 0.000E+00
 ETOT  147  -29.862654483591     -2.132E-14 1.138E-12 0.000E+00
 ETOT  148  -29.862654483591      1.066E-14 1.734E-12 0.000E+00
 ETOT  149  -29.862654483591     -3.553E-15 8.238E-13 0.000E+00
 ETOT  150  -29.862654483591     -1.421E-14 1.255E-12 0.000E+00
 ETOT  151  -29.862654483591      1.066E-14 5.964E-13 0.000E+00
 ETOT  152  -29.862654483591     -3.553E-15 9.089E-13 0.000E+00
 ETOT  153  -29.862654483591      3.553E-15 4.318E-13 0.000E+00
 ETOT  154  -29.862654483591     -3.553E-15 6.580E-13 0.000E+00
 ETOT  155  -29.862654483591      0.000E+00 3.126E-13 0.000E+00
 ETOT  156  -29.862654483591     -1.776E-14 4.764E-13 0.000E+00
 ETOT  157  -29.862654483591      1.066E-14 2.263E-13 0.000E+00
 ETOT  158  -29.862654483591      7.105E-15 3.449E-13 0.000E+00
 ETOT  159  -29.862654483591     -1.776E-14 1.638E-13 0.000E+00
 ETOT  160  -29.862654483591      0.000E+00 2.497E-13 0.000E+00
 ETOT  161  -29.862654483591      2.132E-14 1.186E-13 0.000E+00
 ETOT  162  -29.862654483591     -1.066E-14 1.808E-13 0.000E+00
 ETOT  163  -29.862654483591      7.105E-15 8.587E-14 0.000E+00
 ETOT  164  -29.862654483591     -3.553E-15 1.309E-13 0.000E+00
 ETOT  165  -29.862654483591      0.000E+00 6.217E-14 0.000E+00
 ETOT  166  -29.862654483591      0.000E+00 9.477E-14 0.000E+00
 ETOT  167  -29.862654483591     -3.553E-15 4.501E-14 0.000E+00
 ETOT  168  -29.862654483591      3.553E-15 6.862E-14 0.000E+00
 ETOT  169  -29.862654483591      3.553E-15 3.258E-14 0.000E+00
 ETOT  170  -29.862654483591     -7.105E-15 4.968E-14 0.000E+00
 ETOT  171  -29.862654483591      1.421E-14 2.359E-14 0.000E+00
 ETOT  172  -29.862654483591     -7.105E-15 3.597E-14 0.000E+00
 ETOT  173  -29.862654483591      7.105E-15 1.708E-14 0.000E+00
 ETOT  174  -29.862654483591     -2.842E-14 2.604E-14 0.000E+00
 ETOT  175  -29.862654483591      1.421E-14 1.236E-14 0.000E+00
 ETOT  176  -29.862654483591      1.421E-14 1.886E-14 0.000E+00
 ETOT  177  -29.862654483591     -1.066E-14 8.951E-15 0.000E+00
 ETOT  178  -29.862654483591      0.000E+00 1.365E-14 0.000E+00
 ETOT  179  -29.862654483591      7.105E-15 6.480E-15 0.000E+00
 ETOT  180  -29.862654483591      7.105E-15 9.884E-15 0.000E+00
 ETOT  181  -29.862654483591      3.553E-15 4.692E-15 0.000E+00
 ETOT  182  -29.862654483591      0.000E+00 7.156E-15 0.000E+00
 ETOT  183  -29.862654483591      0.000E+00 3.397E-15 0.000E+00
 ETOT  184  -29.862654483591      3.553E-15 5.182E-15 0.000E+00
 ETOT  185  -29.862654483591     -7.105E-15 2.459E-15 0.000E+00
 ETOT  186  -29.862654483591      3.553E-15 3.752E-15 0.000E+00
 ETOT  187  -29.862654483591      0.000E+00 1.780E-15 0.000E+00
 ETOT  188  -29.862654483591     -7.105E-15 2.716E-15 0.000E+00
 ETOT  189  -29.862654483591     -3.553E-15 1.289E-15 0.000E+00
 ETOT  190  -29.862654483591     -3.553E-15 1.967E-15 0.000E+00
 ETOT  191  -29.862654483591      0.000E+00 9.331E-16 0.000E+00
 ETOT  192  -29.862654483591      7.105E-15 1.424E-15 0.000E+00
 ETOT  193  -29.862654483591     -7.105E-15 6.756E-16 0.000E+00
 ETOT  194  -29.862654483591      0.000E+00 1.031E-15 0.000E+00
 ETOT  195  -29.862654483591     -3.553E-15 4.891E-16 0.000E+00
 ETOT  196  -29.862654483591      0.000E+00 7.465E-16 0.000E+00
 ETOT  197  -29.862654483591     -7.105E-15 3.541E-16 0.000E+00
 ETOT  198  -29.862654483591     -3.553E-15 5.405E-16 0.000E+00
 ETOT  199  -29.862654483591      7.105E-15 2.564E-16 0.000E+00
 ETOT  200  -29.862654483591      0.000E+00 3.914E-16 0.000E+00
 ETOT  201  -29.862654483591     -7.105E-15 1.856E-16 0.000E+00
 ETOT  202  -29.862654483591      0.000E+00 2.834E-16 0.000E+00
 ETOT  203  -29.862654483591      3.553E-15 1.344E-16 0.000E+00
 ETOT  204  -29.862654483591     -7.105E-15 2.052E-16 0.000E+00
 ETOT  205  -29.862654483591      7.105E-15 9.728E-17 0.000E+00
 ETOT  206  -29.862654483591      3.553E-15 1.486E-16 0.000E+00
 ETOT  207  -29.862654483591     -3.553E-15 7.043E-17 0.000E+00
 ETOT  208  -29.862654483591      3.553E-15 1.076E-16 0.000E+00
 ETOT  209  -29.862654483591     -7.105E-15 5.099E-17 0.000E+00
 ETOT  210  -29.862654483591      0.000E+00 7.788E-17 0.000E+00
 ETOT  211  -29.862654483591      0.000E+00 3.692E-17 0.000E+00
 ETOT  212  -29.862654483591     -7.105E-15 5.639E-17 0.000E+00
 ETOT  213  -29.862654483591      1.421E-14 2.673E-17 0.000E+00
 ETOT  214  -29.862654483591      0.000E+00 4.083E-17 0.000E+00
 ETOT  215  -29.862654483591     -1.066E-14 1.935E-17 0.000E+00
 ETOT  216  -29.862654483591      1.421E-14 2.956E-17 0.000E+00
 ETOT  217  -29.862654483591     -3.553E-15 1.401E-17 0.000E+00
 ETOT  218  -29.862654483591      0.000E+00 2.141E-17 0.000E+00
 ETOT  219  -29.862654483591      0.000E+00 1.014E-17 0.000E+00
 ETOT  220  -29.862654483591      0.000E+00 1.550E-17 0.000E+00
 ETOT  221  -29.862654483591     -3.553E-15 7.342E-18 0.000E+00
 ETOT  222  -29.862654483591      1.421E-14 1.122E-17 0.000E+00
 ETOT  223  -29.862654483591     -3.553E-15 5.316E-18 0.000E+00
 ETOT  224  -29.862654483591     -7.105E-15 8.126E-18 0.000E+00
 ETOT  225  -29.862654483591     -7.105E-15 3.849E-18 0.000E+00
 ETOT  226  -29.862654483591      0.000E+00 5.884E-18 0.000E+00
 ETOT  227  -29.862654483591      3.553E-15 2.786E-18 0.000E+00
 ETOT  228  -29.862654483591      1.066E-14 4.260E-18 0.000E+00
 ETOT  229  -29.862654483591     -2.132E-14 2.017E-18 0.000E+00
 ETOT  230  -29.862654483591      1.421E-14 3.085E-18 0.000E+00
 ETOT  231  -29.862654483591     -7.105E-15 1.460E-18 0.000E+00
 ETOT  232  -29.862654483591      7.105E-15 2.234E-18 0.000E+00
 ETOT  233  -29.862654483591      0.000E+00 1.057E-18 0.000E+00
 ETOT  234  -29.862654483591     -3.553E-15 1.617E-18 0.000E+00
 ETOT  235  -29.862654483591      7.105E-15 7.655E-19 0.000E+00
 ETOT  236  -29.862654483591      7.105E-15 1.171E-18 0.000E+00
 ETOT  237  -29.862654483591      3.553E-15 5.542E-19 0.000E+00
 ETOT  238  -29.862654483591     -1.776E-14 8.479E-19 0.000E+00
 ETOT  239  -29.862654483591      3.553E-15 4.012E-19 0.000E+00
 ETOT  240  -29.862654483591     -3.553E-15 6.140E-19 0.000E+00
 ETOT  241  -29.862654483591      0.000E+00 2.905E-19 0.000E+00
 ETOT  242  -29.862654483591      3.553E-15 4.446E-19 0.000E+00
 ETOT  243  -29.862654483591      0.000E+00 2.103E-19 0.000E+00
 ETOT  244  -29.862654483591     -7.105E-15 3.220E-19 0.000E+00
 ETOT  245  -29.862654483591      1.421E-14 1.522E-19 0.000E+00
 ETOT  246  -29.862654483591     -3.553E-15 2.331E-19 0.000E+00
 ETOT  247  -29.862654483591     -3.553E-15 1.102E-19 0.000E+00
 ETOT  248  -29.862654483591      3.553E-15 1.688E-19 0.000E+00
 ETOT  249  -29.862654483591      0.000E+00 7.979E-20 0.000E+00
 ETOT  250  -29.862654483591      0.000E+00 1.222E-19 0.000E+00
 ETOT  251  -29.862654483591     -3.553E-15 5.777E-20 0.000E+00
 ETOT  252  -29.862654483591      3.553E-15 8.848E-20 0.000E+00
 ETOT  253  -29.862654483591      0.000E+00 4.183E-20 0.000E+00
 ETOT  254  -29.862654483591     -7.105E-15 6.405E-20 0.000E+00
 ETOT  255  -29.862654483591      3.553E-15 3.029E-20 0.000E+00
 ETOT  256  -29.862654483591      0.000E+00 4.638E-20 0.000E+00
 ETOT  257  -29.862654483591     -3.553E-15 2.193E-20 0.000E+00
 ETOT  258  -29.862654483591      7.105E-15 3.357E-20 0.000E+00
 ETOT  259  -29.862654483591     -3.553E-15 1.588E-20 0.000E+00
 ETOT  260  -29.862654483591      0.000E+00 2.432E-20 0.000E+00
 ETOT  261  -29.862654483591     -7.105E-15 1.150E-20 0.000E+00
 ETOT  262  -29.862654483591     -3.553E-15 1.760E-20 0.000E+00
 ETOT  263  -29.862654483591      0.000E+00 9.772E-21 0.000E+00
 
 At SCF step  263   max residual=  9.77E-21 < tolwfr=  1.00E-20 =>converged.
================================================================================
 
 ----iterations are completed or convergence reached----
 
 dfpt_looppert: DFPT cycle converged with prtwf=-1. Will skip output of the 1st-order WFK file.
 dfpt_looppert : ek2=    5.2680631136E+01
          f-sum rule ratio=    1.0808819905E+00
 prteigrs : about to open file /scratch/users/j/a/jabreu/flow_simple_remain_atoms/flow/w249/t1/tmpdata/tmp_1WF1_EIG
 Expectation of eigenvalue derivatives (hartree) for nkpt=   2  k points:
  (in case of degenerate eigenvalues, averaged derivative)
 kpt#   1, nband= 25, wtk=  0.50000, kpt=  0.0000  0.0000  0.0000 (reduced coord)
  -0.00000   -0.00000   -0.00000    0.00000    0.00000   -0.00000   -0.00000   -0.00000
   0.00000    0.00000   -0.00000   -0.00000   -0.00000   -0.00000    0.00000    0.00000
   0.00000    0.00000    0.00000    0.00000   -0.00000   -0.00000   -0.00000    0.00000
  -0.00001
 prteigrs : prtvol=0 or 1, do not print more k-points.
 
 
 Eight components of 2nd-order total energy (hartree) are
 1,2,3: 0th-order hamiltonian combined with 1st-order wavefunctions
     kin0=   5.47059865E+01 eigvalue=  -8.97907866E-01  local=  -3.59386879E+01
 4,5,6: 1st-order hamiltonian combined with 1st and 0th-order wfs
     kin1=  -5.69415454E+01  Hartree=   0.00000000E+00     xc=   0.00000000E+00
 7,8,9: eventually, occupation + non-local contributions
    edocc=   7.06083022E+00     enl0=   4.93243360E+00   enl1=  -2.78376352E+00
 1-9 gives the relaxation energy (to be shifted if some occ is /=2.0)
   erelax=  -2.98626545E+01
  No Ewald or frozen-wf contrib.: the relaxation energy is the total one
 2DEtotal=   -0.2986265448E+02 Ha. Also 2DEtotal=   -0.812604154232E+03 eV
    (  non-var. 2DEtotal :   -2.9862654483E+01 Ha)
 
 CALCULATION OF EFFECTIVE MASSES
 NOTE : Additional infos (eff. mass eigenvalues, eigenvectors and, if degenerate, average mass) are available in stdout.

 COMMENTS: 
 - At k-point ( 0.000, 0.000, 0.000), bands    15 through    16
   are DEGENERATE (effective mass tensor is therefore not defined).
   See Section IIIB Eqs. (67)-(70) and Appendix E of PRB 93 205147 (2016).
 - Angular average effective mass for Frohlich model is to be averaged over degenerate bands. See later.
 - Associated theta integrals calculated with ntheta=   1000 points.

 K-point ( 0.000, 0.000, 0.000) | band =    15
 Transport equivalent effective mass tensor:
             -0.5173931353             -0.0829784805             -0.5137102582
             -0.0829784805             -0.4303868398             -0.3107032950
             -0.5137102582             -0.3107032950             -2.3037340692
 Transport equivalent effective mass tensor eigenvalues:
             -2.4911155315             -0.3801998290             -0.3801986839
 Angular average effective mass 1/(<1/m>)=  -0.4806851527
 Angular average effective mass for Frohlich model (<m**0.5>)**2=  -0.5563737477
 Effective masses along directions: (cart. coord. / red. coord. -> eff. mass)
    1:   1.000000  0.000000  0.000000 /   0.906991  0.421150  0.000000 ->  -0.3638006446
    2:   0.000000  1.000000  0.000000 /   0.000000  1.000000  0.000000 ->  -0.3445412179
    3:   0.000000  0.000000  1.000000 /   0.547931  0.547931  0.632095 ->  -1.3071283243
    4:   0.577350  0.577350  0.577350 /   0.596730  0.672991  0.437031 ->  -0.7821605977
    5:   0.000000  0.707107  0.707107 /   0.465794  0.703065  0.537342 ->  -0.6503157776
    6:   0.707107  0.000000  0.707107 /   0.676751  0.544384  0.495636 ->  -0.8010085154
    7:   0.707107  0.707107  0.000000 /   0.595229  0.803556  0.000000 ->  -0.3860418614

 K-point ( 0.000, 0.000, 0.000) | band =    16
 Transport equivalent effective mass tensor:
             -2.5866698939             -0.1375315389             -0.8514684648
             -0.1375315389             -2.4424512074             -0.5149809329
             -0.8514684648             -0.5149809329             -5.5475109005
 Transport equivalent effective mass tensor eigenvalues:
             -5.8580908769             -2.3592730602             -2.3592680647
 Angular average effective mass 1/(<1/m>)=  -1.7115651972
 Angular average effective mass for Frohlich model (<m**0.5>)**2=  -1.8263469275
 Effective masses along directions: (cart. coord. / red. coord. -> eff. mass)
    1:   1.000000  0.000000  0.000000 /   0.906991  0.421150  0.000000 ->  -1.5187074116
    2:   0.000000  1.000000  0.000000 /   0.000000  1.000000  0.000000 ->  -1.6158559954
    3:   0.000000  0.000000  1.000000 /   0.547931  0.547931  0.632095 ->  -3.3294823972
    4:   0.577350  0.577350  0.577350 /   0.596730  0.672991  0.437031 ->  -1.6861209335
    5:   0.000000  0.707107  0.707107 /   0.465794  0.703065  0.537342 ->  -2.8711131360
    6:   0.707107  0.000000  0.707107 /   0.676751  0.544384  0.495636 ->  -3.1805071908
    7:   0.707107  0.707107  0.000000 /   0.595229  0.803556  0.000000 ->  -1.3070672042

 Angular average effective mass for Frohlich model, averaged over degenerate bands.
 Value of     (<<m**0.5>>)**2 =     1.099697E+00
 Absolute Value of <<m**0.5>> =     1.048664E+00


 K-point ( 0.500, 0.500, 0.000) | band =    17
 Effective mass tensor:
              0.7530652533              0.2127599452             -0.4350225271
              0.2127599452              0.5299712366             -0.2631095058
             -0.4350225271             -0.2631095058              1.0769663556
 Effective mass tensor eigenvalues:
              0.4012901672              0.4616702118              1.4970424666
 Angular average effective mass 1/(<1/m>)=   0.5632750893
 Angular average effective mass for Frohlich model (<m**0.5>)**2=   0.6095914633
 Effective masses along directions: (cart. coord. / red. coord. -> eff. mass)
    1:   1.000000  0.000000  0.000000 /   0.906991  0.421150  0.000000 ->   0.5529980635
    2:   0.000000  1.000000  0.000000 /   0.000000  1.000000  0.000000 ->   0.4460533506
    3:   0.000000  0.000000  1.000000 /   0.547931  0.547931  0.632095 ->   0.7838307853
    4:   0.577350  0.577350  0.577350 /   0.596730  0.672991  0.437031 ->   0.4601738686
    5:   0.000000  0.707107  0.707107 /   0.465794  0.703065  0.537342 ->   0.4673936524
    6:   0.707107  0.000000  0.707107 /   0.676751  0.544384  0.495636 ->   0.4605148434
    7:   0.707107  0.707107  0.000000 /   0.595229  0.803556  0.000000 ->   0.6204906126

 END OF EFFECTIVE MASSES SECTION

================================================================================
 
 ---- first-order wavefunction calculations are completed ----
 
 
 Total localisation tensor (bohr^2) in cartesian coordinates
  WARNING : still subject to testing - especially symmetries.
      direction              matrix element
   alpha     beta       real part   imaginary part
     1        1       2.7556939535    0.0000000000
     1        2       0.9322594707    0.0000000000
     1        3       5.7715701237    0.0000000000
     2        1       0.9322594707    0.0000000000
     2        2       1.7781514417    0.0000000000
     2        3       3.4907482892    0.0000000000
     3        1       5.7715701237    0.0000000000
     3        2       3.4907482892    0.0000000000
     3        3      21.7446529374    0.0000000000
 
 respfn : d/dk was computed, but no 2DTE, so no DDB output.
 
== END DATASET(S) ==============================================================
================================================================================
  
 -outvars: echo values of variables after computation  --------
            acell      1.0000000000E+00  1.0000000000E+00  1.0000000000E+00 Bohr
              amu      1.32905430E+02  1.38905500E+02  3.20660000E+01
             ecut      5.20000000E+01 Hartree
           etotal     -2.9862654484E+01
            fcart      0.0000000000E+00  0.0000000000E+00  0.0000000000E+00
                       0.0000000000E+00  0.0000000000E+00  0.0000000000E+00
                       0.0000000000E+00  0.0000000000E+00  0.0000000000E+00
                       0.0000000000E+00  0.0000000000E+00  0.0000000000E+00
-          fftalg         512
           irdden           1
           irdwfk           1
           istwfk        1    1
              ixc     -116133
              kpt      0.00000000E+00  0.00000000E+00  0.00000000E+00
                       5.00000000E-01  5.00000000E-01  0.00000000E+00
           kptopt           0
P           mkmem           2
P          mkqmem           2
P          mk1mem           2
            natom           4
            nband          25
           nbdbuf           4
            ngfft         108     108     108
             nkpt           2
            nstep        2000
             nsym          12
           ntypat           3
              occ      2.000000  2.000000  2.000000  2.000000  2.000000  2.000000
                       2.000000  2.000000  2.000000  2.000000  2.000000  2.000000
                       2.000000  2.000000  2.000000  2.000000  0.000000  0.000000
                       0.000000  0.000000  0.000000  0.000000  0.000000  0.000000
                       0.000000
        optdriver           1
            prtwf          -1
            rfdir           1       1       1
           rfelfd           2
            rprim      7.8194870944E+00  0.0000000000E+00  1.3595467884E+01
                       3.6308844533E+00  6.9253921554E+00  1.3595467884E+01
                       0.0000000000E+00  0.0000000000E+00  1.5683785430E+01
          spgroup         166
           strten      0.0000000000E+00  0.0000000000E+00  0.0000000000E+00
                       0.0000000000E+00  0.0000000000E+00  0.0000000000E+00
           symrel      1  0  0   0  1  0   0  0  1      -1  0  0   0 -1  0   0  0 -1
                       0  1  0   1  0  0   0  0  1       0 -1  0  -1  0  0   0  0 -1
                       0  0  1   1  0  0   0  1  0       0  0 -1  -1  0  0   0 -1  0
                       1  0  0   0  0  1   0  1  0      -1  0  0   0  0 -1   0 -1  0
                       0  1  0   0  0  1   1  0  0       0 -1  0   0  0 -1  -1  0  0
                       0  0  1   0  1  0   1  0  0       0  0 -1   0 -1  0  -1  0  0
           tolwfr      1.00000000E-20
            typat      1  2  3  3
           useylm           1
              wtk        0.50000    0.50000
           xangst      0.0000000000E+00  0.0000000000E+00  0.0000000000E+00
                       3.0296378265E+00  1.8323798446E+00  1.1344162641E+01
                       1.3905916438E+00  8.4105501915E-01  5.2069252756E+00
                       4.6686840091E+00  2.8237046700E+00  1.7481400007E+01
            xcart      0.0000000000E+00  0.0000000000E+00  0.0000000000E+00
                       5.7251857739E+00  3.4626960777E+00  2.1437360599E+01
                       2.6278373695E+00  1.5893636489E+00  9.8396627653E+00
                       8.8225341782E+00  5.3360285065E+00  3.3035058432E+01
             xred      0.0000000000E+00  0.0000000000E+00  0.0000000000E+00
                       5.0000000000E-01  5.0000000000E-01  5.0000000000E-01
                       2.2949800000E-01  2.2949800000E-01  2.2949800000E-01
                       7.7050200000E-01  7.7050200000E-01  7.7050200000E-01
            znucl       55.00000   57.00000   16.00000
 
================================================================================


- Timing analysis has been suppressed with timopt=0



================================================================================

 Suggested references for the acknowledgment of ABINIT usage.

 The users of ABINIT have little formal obligations with respect to the ABINIT group
 (those specified in the GNU General Public License, http://www.gnu.org/copyleft/gpl.txt).
 However, it is common practice in the scientific literature,
 to acknowledge the efforts of people that have made the research possible.
 In this spirit, please find below suggested citations of work written by ABINIT developers,
 corresponding to implementations inside of ABINIT that you have used in the present run.
 Note also that it will be of great value to readers of publications presenting these results,
 to read papers enabling them to understand the theoretical formalism and details
 of the ABINIT implementation.
 For information on why they are suggested, see also https://docs.abinit.org/theory/acknowledgments.
-
- [1] Precise effective masses from density functional perturbation theory
- J. Laflamme Janssen, Y. Gillet, S. Ponce, A. Martin, M. Torrent, and X. Gonze. Phys. Rev. B 93, 205147 (2016)
- Comment: in case the DFPT prediction of effective masses is used.
- Strong suggestion to cite this paper in your publications.
- DOI and bibtex: see https://docs.abinit.org/theory/bibliography/#laflamme2016
-
- [2] Libxc: A library of exchange and correlation functionals for density functional theory.
- M.A.L. Marques, M.J.T. Oliveira, T. Burnus, Computer Physics Communications 183, 2227 (2012).
- Comment: to be cited when LibXC is used (negative value of ixc)
- Strong suggestion to cite this paper.
- DOI and bibtex: see https://docs.abinit.org/theory/bibliography/#marques2012
-
- [3] The Abinit project: Impact, environment and recent developments.
- Computer Phys. Comm. 248, 107042 (2020).
- X.Gonze, B. Amadon, G. Antonius, F.Arnardi, L.Baguet, J.-M.Beuken,
- J.Bieder, F.Bottin, J.Bouchet, E.Bousquet, N.Brouwer, F.Bruneval,
- G.Brunin, T.Cavignac, J.-B. Charraud, Wei Chen, M.Cote, S.Cottenier,
- J.Denier, G.Geneste, Ph.Ghosez, M.Giantomassi, Y.Gillet, O.Gingras,
- D.R.Hamann, G.Hautier, Xu He, N.Helbig, N.Holzwarth, Y.Jia, F.Jollet,
- W.Lafargue-Dit-Hauret, K.Lejaeghere, M.A.L.Marques, A.Martin, C.Martins,
- H.P.C. Miranda, F.Naccarato, K. Persson, G.Petretto, V.Planes, Y.Pouillon,
- S.Prokhorenko, F.Ricci, G.-M.Rignanese, A.H.Romero, M.M.Schmitt, M.Torrent,
- M.J.van Setten, B.Van Troeye, M.J.Verstraete, G.Zerah and J.W.Zwanzig
- Comment: the fifth generic paper describing the ABINIT project.
- Note that a version of this paper, that is not formatted for Computer Phys. Comm. 
- is available at https://www.abinit.org/sites/default/files/ABINIT20.pdf .
- The licence allows the authors to put it on the Web.
- DOI and bibtex: see https://docs.abinit.org/theory/bibliography/#gonze2020
-
- [4] First-principles responses of solids to atomic displacements and homogeneous electric fields:,
- implementation of a conjugate-gradient algorithm. X. Gonze, Phys. Rev. B55, 10337 (1997).
- Comment: Non-vanishing rfphon and/or rfelfd, in the norm-conserving case.
- DOI and bibtex: see https://docs.abinit.org/theory/bibliography/#gonze1997
-
- [5] Dynamical matrices, Born effective charges, dielectric permittivity tensors, and ,
- interatomic force constants from density-functional perturbation theory,
- X. Gonze and C. Lee, Phys. Rev. B55, 10355 (1997).
- Comment: Non-vanishing rfphon and/or rfelfd, in the norm-conserving case.
- DOI and bibtex: see https://docs.abinit.org/theory/bibliography/#gonze1997a
-
- [6] Optimized norm-conserving Vanderbilt pseudopotentials.
- D.R. Hamann, Phys. Rev. B 88, 085117 (2013).
- Comment: Some pseudopotential generated using the ONCVPSP code were used.
- DOI and bibtex: see https://docs.abinit.org/theory/bibliography/#hamann2013
-
- [7] ABINIT: Overview, and focus on selected capabilities
- J. Chem. Phys. 152, 124102 (2020).
- A. Romero, D.C. Allan, B. Amadon, G. Antonius, T. Applencourt, L.Baguet,
- J.Bieder, F.Bottin, J.Bouchet, E.Bousquet, F.Bruneval,
- G.Brunin, D.Caliste, M.Cote,
- J.Denier, C. Dreyer, Ph.Ghosez, M.Giantomassi, Y.Gillet, O.Gingras,
- D.R.Hamann, G.Hautier, F.Jollet, G. Jomard,
- A.Martin, 
- H.P.C. Miranda, F.Naccarato, G.Petretto, N.A. Pike, V.Planes,
- S.Prokhorenko, T. Rangel, F.Ricci, G.-M.Rignanese, M.Royo, M.Stengel, M.Torrent,
- M.J.van Setten, B.Van Troeye, M.J.Verstraete, J.Wiktor, J.W.Zwanziger, and X.Gonze.
- Comment: a global overview of ABINIT, with focus on selected capabilities .
- Note that a version of this paper, that is not formatted for J. Chem. Phys 
- is available at https://www.abinit.org/sites/default/files/ABINIT20_JPC.pdf .
- The licence allows the authors to put it on the Web.
- DOI and bibtex: see https://docs.abinit.org/theory/bibliography/#romero2020
-
- [8] Recent developments in the ABINIT software package.
- Computer Phys. Comm. 205, 106 (2016).
- X.Gonze, F.Jollet, F.Abreu Araujo, D.Adams, B.Amadon, T.Applencourt,
- C.Audouze, J.-M.Beuken, J.Bieder, A.Bokhanchuk, E.Bousquet, F.Bruneval
- D.Caliste, M.Cote, F.Dahm, F.Da Pieve, M.Delaveau, M.Di Gennaro,
- B.Dorado, C.Espejo, G.Geneste, L.Genovese, A.Gerossier, M.Giantomassi,
- Y.Gillet, D.R.Hamann, L.He, G.Jomard, J.Laflamme Janssen, S.Le Roux,
- A.Levitt, A.Lherbier, F.Liu, I.Lukacevic, A.Martin, C.Martins,
- M.J.T.Oliveira, S.Ponce, Y.Pouillon, T.Rangel, G.-M.Rignanese,
- A.H.Romero, B.Rousseau, O.Rubel, A.A.Shukri, M.Stankovski, M.Torrent,
- M.J.Van Setten, B.Van Troeye, M.J.Verstraete, D.Waroquier, J.Wiktor,
- B.Xu, A.Zhou, J.W.Zwanziger.
- Comment: the fourth generic paper describing the ABINIT project.
- Note that a version of this paper, that is not formatted for Computer Phys. Comm. 
- is available at https://www.abinit.org/sites/default/files/ABINIT16.pdf .
- The licence allows the authors to put it on the Web.
- DOI and bibtex: see https://docs.abinit.org/theory/bibliography/#gonze2016
-
- Proc.   0 individual time (sec): cpu=       3075.4  wall=       3094.9
 
================================================================================
 
 Calculation completed.
.Delivered   2 WARNINGs and   5 COMMENTs to log file.
+Overall time at end (sec) : cpu=       3075.4  wall=       3094.9
