
.Version 9.5.1 of ABINIT 
.(MPI version, prepared for a x86_64_linux_intel19.1 computer) 

.Copyright (C) 1998-2021 ABINIT group . 
 ABINIT comes with ABSOLUTELY NO WARRANTY.
 It is free software, and you are welcome to redistribute it
 under certain conditions (GNU General Public License,
 see ~abinit/COPYING or http://www.gnu.org/copyleft/gpl.txt).

 ABINIT is a project of the Universite Catholique de Louvain,
 Corning Inc. and other collaborators, see ~abinit/doc/developers/contributors.txt .
 Please read https://docs.abinit.org/theory/acknowledgments for suggested
 acknowledgments of the ABINIT effort.
 For more information, see https://www.abinit.org .

.Starting date : Sat  1 May 2021.
- ( at 05h09 )
  
- input  file    -> /scratch/users/j/a/jabreu/flow_simple_6atoms/flow/w147/t1/run.abi
- output file    -> /scratch/users/j/a/jabreu/flow_simple_6atoms/flow/w147/t1/run.abo
- root for input  files -> /scratch/users/j/a/jabreu/flow_simple_6atoms/flow/w147/t1/indata/in
- root for output files -> /scratch/users/j/a/jabreu/flow_simple_6atoms/flow/w147/t1/outdata/out
 
 
 Symmetries : space group R-3 m (#166); Bravais hR (rhombohedral)
================================================================================
 Values of the parameters that define the memory need of the present run (RF).
     intxc =       0      iscf =       7    lmnmax =      18     lnmax =       6
     mgfft =     120  mpssoang =       3    mqgrid =    3001     natom =       6
  nloc_mem =       1    nspden =       1   nspinor =       1    nsppol =       1
      nsym =      12    n1xccc =    2501    ntypat =       4    occopt =       1
   xclevel =       2
-    mband =          38        mffmem =           1         mkmem =           1
-   mkqmem =           1        mk1mem =           1           mpw =       15378
      nfft =     1728000          nkpt =           1
================================================================================
P This job should need less than                     398.687 Mbytes of memory.
  Rough estimation (10% accuracy) of disk space for files :
_ WF disk file :      8.919 Mbytes ; DEN or POT disk file :     13.186 Mbytes.
================================================================================
 
--------------------------------------------------------------------------------
------------- Echo of variables that govern the present computation ------------
--------------------------------------------------------------------------------
-
- outvars: echo of selected default values                                      
-   iomode0 =  0 , fftalg0 =512 , wfoptalg0 =  0
-
- outvars: echo of global parameters not present in the input file              
-  max_nthreads =    0
-
 -outvars: echo values of preprocessed input variables --------
            acell      1.0000000000E+00  1.0000000000E+00  1.0000000000E+00 Bohr
              amu      1.37327000E+02  6.35460000E+01  7.99040000E+01
                       1.59994000E+01
             ecut      4.60000000E+01 Hartree
-          fftalg         512
           irdden           1
           irdwfk           1
           istwfk        1
              ixc     -116133
              kpt      5.00000000E-01  0.00000000E+00  0.00000000E+00
           kptopt           0
P           mkmem           1
P          mkqmem           1
P          mk1mem           1
            natom           6
            nband          38
           nbdbuf           4
            ngfft         120     120     120
             nkpt           1
            nstep        1000
             nsym          12
           ntypat           4
              occ      2.000000  2.000000  2.000000  2.000000  2.000000  2.000000
                       2.000000  2.000000  2.000000  2.000000  2.000000  2.000000
                       2.000000  2.000000  2.000000  2.000000  2.000000  2.000000
                       2.000000  2.000000  2.000000  2.000000  2.000000  2.000000
                       2.000000  2.000000  2.000000  2.000000  2.000000  0.000000
                       0.000000  0.000000  0.000000  0.000000  0.000000  0.000000
                       0.000000  0.000000
        optdriver           1
            prtwf          -1
            rfdir           1       1       1
           rfelfd           2
            rprim      7.8923220113E+00  0.0000000000E+00  1.7097997575E+01
                       3.7557557308E+00  6.9414008399E+00  1.7097997575E+01
                       0.0000000000E+00  0.0000000000E+00  1.8831629452E+01
          spgroup         166
           symrel      1  0  0   0  1  0   0  0  1      -1  0  0   0 -1  0   0  0 -1
                       0  1  0   1  0  0   0  0  1       0 -1  0  -1  0  0   0  0 -1
                       0  0  1   1  0  0   0  1  0       0  0 -1  -1  0  0   0 -1  0
                       1  0  0   0  0  1   0  1  0      -1  0  0   0  0 -1   0 -1  0
                       0  1  0   0  0  1   1  0  0       0 -1  0   0  0 -1  -1  0  0
                       0  0  1   0  1  0   1  0  0       0  0 -1   0 -1  0  -1  0  0
           tolwfr      1.00000000E-20
            typat      1  1  2  3  4  4
           useylm           1
           xangst      1.5515330723E+00  9.2460002495E-01  7.0633211020E+00
                       4.6123641927E+00  2.7486310952E+00  2.0997689263E+01
                       3.0819486325E+00  1.8366155601E+00  1.4030505182E+01
                       0.0000000000E+00  0.0000000000E+00  0.0000000000E+00
                       3.4614228037E+00  2.0627543608E+00  1.5758053225E+01
                       2.7024744613E+00  1.6104767594E+00  1.2302957140E+01
            xcart      2.9319725927E+00  1.7472408296E+00  1.3347742471E+01
                       8.7161051494E+00  5.1941600103E+00  3.9679882130E+01
                       5.8240388710E+00  3.4707004200E+00  2.6513812301E+01
                       0.0000000000E+00  0.0000000000E+00  0.0000000000E+00
                       6.5411411292E+00  3.8980408213E+00  2.9778404982E+01
                       5.1069366129E+00  3.0433600186E+00  2.3249219620E+01
             xred      2.5171300000E-01  2.5171300000E-01  2.5171300000E-01
                       7.4828700000E-01  7.4828700000E-01  7.4828700000E-01
                       5.0000000000E-01  5.0000000000E-01  5.0000000000E-01
                       0.0000000000E+00  0.0000000000E+00  0.0000000000E+00
                       5.6156400000E-01  5.6156400000E-01  5.6156400000E-01
                       4.3843600000E-01  4.3843600000E-01  4.3843600000E-01
            znucl       56.00000   29.00000   35.00000    8.00000
 
================================================================================
 
 chkinp: Checking input parameters for consistency.
 
================================================================================
== DATASET  1 ==================================================================
-   mpi_nproc: 1, omp_nthreads: -1 (-1 if OMP is not activated)
 

--- !DatasetInfo
iteration_state: {dtset: 1, }
dimensions: {natom: 6, nkpt: 1, mband: 38, nsppol: 1, nspinor: 1, nspden: 1, mpw: 15378, }
cutoff_energies: {ecut:  46.0, pawecutdg:  -1.0, }
electrons: {nelect:   5.80000000E+01, charge:   0.00000000E+00, occopt:   1.00000000E+00, tsmear:   1.00000000E-02, }
meta: {optdriver: 1, rfelfd: 2, }
...

 Real(R)+Recip(G) space primitive vectors, cartesian coordinates (Bohr,Bohr^-1):
 R(1)=  7.8923220  0.0000000 17.0979976  G(1)=  0.1267054 -0.0685560  0.0000000
 R(2)=  3.7557557  6.9414008 17.0979976  G(2)=  0.0000000  0.1440631  0.0000000
 R(3)=  0.0000000  0.0000000 18.8316295  G(3)= -0.1150410 -0.0685560  0.0531021
 Unit cell volume ucvol=  1.0316677E+03 bohr^3
 Angles (23,13,12)=  2.47777332E+01  2.47777332E+01  2.47777332E+01 degrees
 
 getcut: wavevector=  0.0000  0.0000  0.0000  ngfft= 120 120 120
         ecut(hartree)=     46.000   => boxcut(ratio)=   2.08764
 
--- Pseudopotential description ------------------------------------------------
- pspini: atom type   1  psp file is /scratch/users/j/a/jabreu/pseudos/PBEsol/Ba.psp8
- pspatm: opening atomic psp file    /scratch/users/j/a/jabreu/pseudos/PBEsol/Ba.psp8
- Ba    ONCVPSP-3.3.0  r_core=   2.15444   1.91218   2.15444
- 56.00000  10.00000    180112                znucl, zion, pspdat
    8 -116133    2    4       600   0.00000   pspcod,pspxc,lmax,lloc,mmax,r2well
    5.99000000000000    5.00000000000000    0.00000000000000   rchrg,fchrg,qchrg
     nproj     2     2     2
     extension_switch     1
  pspatm : epsatm=   26.37418029
         --- l  ekb(1:nproj) -->
             0    6.652372    0.677024
             1    5.027722    0.408462
             2    2.543237    0.416854
 pspatm: atomic psp has been read  and splines computed
 
- pspini: atom type   2  psp file is /scratch/users/j/a/jabreu/pseudos/PBEsol/Cu.psp8
- pspatm: opening atomic psp file    /scratch/users/j/a/jabreu/pseudos/PBEsol/Cu.psp8
- Cu    ONCVPSP-3.3.0  r_core=   1.26204   1.45626   1.76249
- 29.00000  19.00000    180112                znucl, zion, pspdat
    8 -116133    2    4       600   0.00000   pspcod,pspxc,lmax,lloc,mmax,r2well
    5.99000000000000    3.50000000000000    0.00000000000000   rchrg,fchrg,qchrg
     nproj     2     2     2
     extension_switch     1
  pspatm : epsatm=   21.63488701
         --- l  ekb(1:nproj) -->
             0    5.008230   -0.401634
             1   -3.496700   -0.765945
             2   -6.895851   -2.521180
 pspatm: atomic psp has been read  and splines computed
 
- pspini: atom type   3  psp file is /scratch/users/j/a/jabreu/pseudos/PBEsol/Br.psp8
- pspatm: opening atomic psp file    /scratch/users/j/a/jabreu/pseudos/PBEsol/Br.psp8
- Br    ONCVPSP-3.3.0  r_core=   1.81012   1.51356   1.92136
- 35.00000   7.00000    180112                znucl, zion, pspdat
    8 -116133    2    4       600   0.00000   pspcod,pspxc,lmax,lloc,mmax,r2well
    5.99000000000000    8.00000000000000    0.00000000000000   rchrg,fchrg,qchrg
     nproj     2     2     2
     extension_switch     1
  pspatm : epsatm=   10.94933070
         --- l  ekb(1:nproj) -->
             0    8.508690    0.897946
             1    5.393311    0.892021
             2    2.527513    0.394763
 pspatm: atomic psp has been read  and splines computed
 
- pspini: atom type   4  psp file is /scratch/users/j/a/jabreu/pseudos/PBEsol/O.psp8
- pspatm: opening atomic psp file    /scratch/users/j/a/jabreu/pseudos/PBEsol/O.psp8
- O     ONCVPSP-3.3.0  r_core=   1.35509   1.45563   1.26150
-  8.00000   6.00000    180112                znucl, zion, pspdat
    8 -116133    2    4       600   0.00000   pspcod,pspxc,lmax,lloc,mmax,r2well
    5.99000000000000    4.00000000000000    0.00000000000000   rchrg,fchrg,qchrg
     nproj     2     2     1
     extension_switch     1
  pspatm : epsatm=    6.22910522
         --- l  ekb(1:nproj) -->
             0    6.050032    0.820363
             1   -4.739617   -1.153841
             2   -1.335834
 pspatm: atomic psp has been read  and splines computed
 
   5.67186575E+03                                ecore*ucvol(ha*bohr**3)
--------------------------------------------------------------------------------
 
-inwffil : will read wavefunctions from disk file /scratch/users/j/a/jabreu/flow_simple_6atoms/flow/w147/t1/indata/in_WFK
 
 ==>  initialize data related to q vector <== 
 
 The list of irreducible perturbations for this q vector is:
    1)    idir= 1    ipert=   7
    2)    idir= 2    ipert=   7
    3)    idir= 3    ipert=   7
 
================================================================================
 
--------------------------------------------------------------------------------
 Perturbation wavevector (in red.coord.)   0.000000  0.000000  0.000000
 Perturbation : derivative vs k along direction   1
 
 dfpt_looppert : COMMENT -
  In a d/dk calculation, iscf is set to -3 automatically.
 The set of symmetries contains only one element for this perturbation.
 symkpt : not enough symmetry to change the number of k points.
 
--------------------------------------------------------------------------------
 
-inwffil : will read wavefunctions from disk file /scratch/users/j/a/jabreu/flow_simple_6atoms/flow/w147/t1/indata/in_WFK
--------------------------------------------------------------------------------
 
 Initialisation of the first-order wave-functions :
  ireadwf=   0

--- !BeginCycle
iteration_state: {dtset: 1, }
solver: {iscf: 7, nstep: 1000, nline: 4, wfoptalg: 0, }
tolerances: {tolwfr: 1.00E-20, }
...
 
     iter   2DEtotal(Ha)        deltaE(Ha) residm    vres2
-ETOT  1  -55.409087566627     -5.541E+01 9.264E-02 0.000E+00
 ETOT  2  -55.567075030677     -1.580E-01 6.973E-03 0.000E+00
 ETOT  3  -55.571291688206     -4.217E-03 3.067E-04 0.000E+00
 ETOT  4  -55.571460564934     -1.689E-04 7.611E-05 0.000E+00
 ETOT  5  -55.571468103531     -7.539E-06 4.862E-06 0.000E+00
 ETOT  6  -55.571468516741     -4.132E-07 1.384E-06 0.000E+00
 ETOT  7  -55.571468543473     -2.673E-08 9.110E-08 0.000E+00
 ETOT  8  -55.571468545316     -1.843E-09 2.651E-08 0.000E+00
 ETOT  9  -55.571468545451     -1.348E-10 1.758E-09 0.000E+00
 ETOT 10  -55.571468545462     -1.044E-11 5.191E-10 0.000E+00
 ETOT 11  -55.571468545462     -7.816E-13 3.457E-11 0.000E+00
 ETOT 12  -55.571468545463     -8.527E-14 1.029E-11 0.000E+00
 ETOT 13  -55.571468545463      4.974E-14 6.874E-13 0.000E+00
 ETOT 14  -55.571468545463     -6.395E-14 2.056E-13 0.000E+00
 ETOT 15  -55.571468545463      5.684E-14 1.377E-14 0.000E+00
 ETOT 16  -55.571468545463     -2.842E-14 4.129E-15 0.000E+00
 ETOT 17  -55.571468545463      0.000E+00 2.771E-16 0.000E+00
 ETOT 18  -55.571468545463      1.421E-14 8.323E-17 0.000E+00
 ETOT 19  -55.571468545463     -7.105E-15 5.596E-18 0.000E+00
 ETOT 20  -55.571468545463      2.132E-14 1.682E-18 0.000E+00
 ETOT 21  -55.571468545463     -7.105E-15 1.133E-19 0.000E+00
 ETOT 22  -55.571468545463     -7.105E-15 3.407E-20 0.000E+00
 ETOT 23  -55.571468545463     -7.105E-15 9.554E-21 0.000E+00
 
 At SCF step   23   max residual=  9.55E-21 < tolwfr=  1.00E-20 =>converged.
================================================================================
 
 ----iterations are completed or convergence reached----
 
 dfpt_looppert: DFPT cycle converged with prtwf=-1. Will skip output of the 1st-order WFK file.
 dfpt_looppert : ek2=    9.5043731319E+01
          f-sum rule ratio=    1.0673641124E+00
 prteigrs : about to open file /scratch/users/j/a/jabreu/flow_simple_6atoms/flow/w147/t1/tmpdata/tmp_1WF1_EIG
 Expectation of eigenvalue derivatives (hartree) for nkpt=   1  k points:
  (in case of degenerate eigenvalues, averaged derivative)
 kpt#   1, nband= 38, wtk=  1.00000, kpt=  0.5000  0.0000  0.0000 (reduced coord)
  -0.00000   -0.00000   -0.00000   -0.00000    0.00000   -0.00000    0.00000   -0.00000
   0.00000   -0.00000    0.00000    0.00000    0.00000   -0.00000   -0.00000   -0.00000
  -0.00000    0.00000    0.00000   -0.00000    0.00000    0.00000   -0.00000   -0.00000
   0.00000    0.00000   -0.00000    0.00000   -0.00000    0.00000   -0.00000    0.00000
  -0.00000    0.00000   -0.00000    0.00000   -0.00000   -0.00000
 
 Eight components of 2nd-order total energy (hartree) are
 1,2,3: 0th-order hamiltonian combined with 1st-order wavefunctions
     kin0=   8.01620737E+01 eigvalue=   9.15504982E-01  local=  -4.11077701E+01
 4,5,6: 1st-order hamiltonian combined with 1st and 0th-order wfs
     kin1=  -1.01446268E+02  Hartree=   0.00000000E+00     xc=   0.00000000E+00
 7,8,9: eventually, occupation + non-local contributions
    edocc=   1.12768020E+01     enl0=   4.32485800E+00   enl1=  -9.69666917E+00
 1-9 gives the relaxation energy (to be shifted if some occ is /=2.0)
   erelax=  -5.55714685E+01
  No Ewald or frozen-wf contrib.: the relaxation energy is the total one
 2DEtotal=   -0.5557146855E+02 Ha. Also 2DEtotal=   -0.151217656225E+04 eV
    (  non-var. 2DEtotal :   -5.5571468545E+01 Ha)
 
--------------------------------------------------------------------------------
 Perturbation wavevector (in red.coord.)   0.000000  0.000000  0.000000
 Perturbation : derivative vs k along direction   2
 The set of symmetries contains only one element for this perturbation.
 symkpt : not enough symmetry to change the number of k points.
 
--------------------------------------------------------------------------------
 
-inwffil : will read wavefunctions from disk file /scratch/users/j/a/jabreu/flow_simple_6atoms/flow/w147/t1/indata/in_WFK
--------------------------------------------------------------------------------
 
 Initialisation of the first-order wave-functions :
  ireadwf=   0

--- !BeginCycle
iteration_state: {dtset: 1, }
solver: {iscf: 7, nstep: 1000, nline: 4, wfoptalg: 0, }
tolerances: {tolwfr: 1.00E-20, }
...
 
     iter   2DEtotal(Ha)        deltaE(Ha) residm    vres2
-ETOT  1  -53.135250095171     -5.314E+01 3.756E-01 0.000E+00
 ETOT  2  -53.296998294132     -1.617E-01 9.572E-03 0.000E+00
 ETOT  3  -53.302700458556     -5.702E-03 3.965E-04 0.000E+00
 ETOT  4  -53.303023849300     -3.234E-04 1.066E-04 0.000E+00
 ETOT  5  -53.303046185042     -2.234E-05 5.020E-06 0.000E+00
 ETOT  6  -53.303047811093     -1.626E-06 2.080E-06 0.000E+00
 ETOT  7  -53.303047934444     -1.234E-07 1.019E-07 0.000E+00
 ETOT  8  -53.303047944009     -9.565E-09 4.455E-08 0.000E+00
 ETOT  9  -53.303047944767     -7.576E-10 2.236E-09 0.000E+00
 ETOT 10  -53.303047944828     -6.087E-11 1.005E-09 0.000E+00
 ETOT 11  -53.303047944833     -5.024E-12 5.151E-11 0.000E+00
 ETOT 12  -53.303047944833     -4.334E-13 2.352E-11 0.000E+00
 ETOT 13  -53.303047944833     -7.105E-15 1.228E-12 0.000E+00
 ETOT 14  -53.303047944833      1.421E-14 5.662E-13 0.000E+00
 ETOT 15  -53.303047944833     -5.684E-14 3.003E-14 0.000E+00
 ETOT 16  -53.303047944833      2.132E-14 1.391E-14 0.000E+00
 ETOT 17  -53.303047944833     -4.974E-14 7.474E-16 0.000E+00
 ETOT 18  -53.303047944833      1.421E-14 3.468E-16 0.000E+00
 ETOT 19  -53.303047944833      1.421E-14 1.883E-17 0.000E+00
 ETOT 20  -53.303047944833     -1.421E-14 8.736E-18 0.000E+00
 ETOT 21  -53.303047944833      0.000E+00 4.782E-19 0.000E+00
 ETOT 22  -53.303047944833      7.105E-15 2.217E-19 0.000E+00
 ETOT 23  -53.303047944833      0.000E+00 1.222E-20 0.000E+00
 ETOT 24  -53.303047944833      0.000E+00 9.147E-21 0.000E+00
 
 At SCF step   24   max residual=  9.15E-21 < tolwfr=  1.00E-20 =>converged.
================================================================================
 
 ----iterations are completed or convergence reached----
 
 dfpt_looppert: DFPT cycle converged with prtwf=-1. Will skip output of the 1st-order WFK file.
 dfpt_looppert : ek2=    9.5043731320E+01
          f-sum rule ratio=    1.0165802155E+00
 prteigrs : about to open file /scratch/users/j/a/jabreu/flow_simple_6atoms/flow/w147/t1/tmpdata/tmp_1WF1_EIG
 Expectation of eigenvalue derivatives (hartree) for nkpt=   1  k points:
  (in case of degenerate eigenvalues, averaged derivative)
 kpt#   1, nband= 38, wtk=  1.00000, kpt=  0.5000  0.0000  0.0000 (reduced coord)
   0.00000    0.00000    0.00000    0.00000   -0.00000    0.00000   -0.00000    0.00000
   0.00000   -0.00000    0.00000    0.00000    0.00000    0.00000   -0.00000    0.00000
   0.00000    0.00000   -0.00000   -0.00000   -0.00000   -0.00000    0.00000   -0.00000
   0.00000   -0.00000   -0.00000    0.00000    0.00000    0.00000   -0.00000   -0.00000
  -0.00000   -0.00000    0.00000    0.00000    0.00000   -0.00000
 
 Eight components of 2nd-order total energy (hartree) are
 1,2,3: 0th-order hamiltonian combined with 1st-order wavefunctions
     kin0=   7.17648718E+01 eigvalue=   9.82031765E-01  local=  -3.49459263E+01
 4,5,6: 1st-order hamiltonian combined with 1st and 0th-order wfs
     kin1=  -9.66195769E+01  Hartree=   0.00000000E+00     xc=   0.00000000E+00
 7,8,9: eventually, occupation + non-local contributions
    edocc=   1.24966681E+01     enl0=   3.00540251E+00   enl1=  -9.98651902E+00
 1-9 gives the relaxation energy (to be shifted if some occ is /=2.0)
   erelax=  -5.33030479E+01
  No Ewald or frozen-wf contrib.: the relaxation energy is the total one
 2DEtotal=   -0.5330304794E+02 Ha. Also 2DEtotal=   -0.145044969853E+04 eV
    (  non-var. 2DEtotal :   -5.3303047945E+01 Ha)
 
--------------------------------------------------------------------------------
 Perturbation wavevector (in red.coord.)   0.000000  0.000000  0.000000
 Perturbation : derivative vs k along direction   3
 The set of symmetries contains only one element for this perturbation.
 symkpt : not enough symmetry to change the number of k points.
 
--------------------------------------------------------------------------------
 
-inwffil : will read wavefunctions from disk file /scratch/users/j/a/jabreu/flow_simple_6atoms/flow/w147/t1/indata/in_WFK
--------------------------------------------------------------------------------
 
 Initialisation of the first-order wave-functions :
  ireadwf=   0

--- !BeginCycle
iteration_state: {dtset: 1, }
solver: {iscf: 7, nstep: 1000, nline: 4, wfoptalg: 0, }
tolerances: {tolwfr: 1.00E-20, }
...
 
     iter   2DEtotal(Ha)        deltaE(Ha) residm    vres2
-ETOT  1  -53.135250773032     -5.314E+01 3.756E-01 0.000E+00
 ETOT  2  -53.296998938601     -1.617E-01 9.572E-03 0.000E+00
 ETOT  3  -53.302701101668     -5.702E-03 3.965E-04 0.000E+00
 ETOT  4  -53.303024492328     -3.234E-04 1.066E-04 0.000E+00
 ETOT  5  -53.303046828064     -2.234E-05 5.020E-06 0.000E+00
 ETOT  6  -53.303048454114     -1.626E-06 2.080E-06 0.000E+00
 ETOT  7  -53.303048577465     -1.234E-07 1.019E-07 0.000E+00
 ETOT  8  -53.303048587030     -9.565E-09 4.455E-08 0.000E+00
 ETOT  9  -53.303048587788     -7.577E-10 2.236E-09 0.000E+00
 ETOT 10  -53.303048587849     -6.085E-11 1.005E-09 0.000E+00
 ETOT 11  -53.303048587854     -5.045E-12 5.151E-11 0.000E+00
 ETOT 12  -53.303048587854     -4.263E-13 2.352E-11 0.000E+00
 ETOT 13  -53.303048587854     -2.842E-14 1.228E-12 0.000E+00
 ETOT 14  -53.303048587854      9.237E-14 5.662E-13 0.000E+00
 ETOT 15  -53.303048587854     -1.279E-13 3.003E-14 0.000E+00
 ETOT 16  -53.303048587854     -2.132E-14 1.391E-14 0.000E+00
 ETOT 17  -53.303048587854      5.684E-14 7.474E-16 0.000E+00
 ETOT 18  -53.303048587855     -7.105E-14 3.468E-16 0.000E+00
 ETOT 19  -53.303048587855     -1.421E-14 1.883E-17 0.000E+00
 ETOT 20  -53.303048587855      7.105E-15 8.736E-18 0.000E+00
 ETOT 21  -53.303048587855     -7.105E-15 4.782E-19 0.000E+00
 ETOT 22  -53.303048587855     -7.105E-15 2.217E-19 0.000E+00
 ETOT 23  -53.303048587855      0.000E+00 1.222E-20 0.000E+00
 ETOT 24  -53.303048587855      1.421E-14 9.147E-21 0.000E+00
 
 At SCF step   24   max residual=  9.15E-21 < tolwfr=  1.00E-20 =>converged.
================================================================================
 
 ----iterations are completed or convergence reached----
 
 dfpt_looppert: DFPT cycle converged with prtwf=-1. Will skip output of the 1st-order WFK file.
 dfpt_looppert : ek2=    9.5043731319E+01
          f-sum rule ratio=    1.0165802289E+00
 prteigrs : about to open file /scratch/users/j/a/jabreu/flow_simple_6atoms/flow/w147/t1/tmpdata/tmp_1WF1_EIG
 Expectation of eigenvalue derivatives (hartree) for nkpt=   1  k points:
  (in case of degenerate eigenvalues, averaged derivative)
 kpt#   1, nband= 38, wtk=  1.00000, kpt=  0.5000  0.0000  0.0000 (reduced coord)
   0.00000    0.00000    0.00000   -0.00000   -0.00000    0.00000   -0.00000   -0.00000
  -0.00000    0.00000    0.00000   -0.00000   -0.00000    0.00000    0.00000    0.00000
   0.00000   -0.00000   -0.00000    0.00000   -0.00000   -0.00000   -0.00000    0.00000
  -0.00000   -0.00000    0.00000   -0.00000    0.00000   -0.00000   -0.00000   -0.00000
   0.00000    0.00000   -0.00000   -0.00000   -0.00000    0.00000
 
 Eight components of 2nd-order total energy (hartree) are
 1,2,3: 0th-order hamiltonian combined with 1st-order wavefunctions
     kin0=   7.17648608E+01 eigvalue=   9.82031390E-01  local=  -3.49459182E+01
 4,5,6: 1st-order hamiltonian combined with 1st and 0th-order wfs
     kin1=  -9.66195781E+01  Hartree=   0.00000000E+00     xc=   0.00000000E+00
 7,8,9: eventually, occupation + non-local contributions
    edocc=   1.24966737E+01     enl0=   3.00540098E+00   enl1=  -9.98651904E+00
 1-9 gives the relaxation energy (to be shifted if some occ is /=2.0)
   erelax=  -5.33030486E+01
  No Ewald or frozen-wf contrib.: the relaxation energy is the total one
 2DEtotal=   -0.5330304859E+02 Ha. Also 2DEtotal=   -0.145044971603E+04 eV
    (  non-var. 2DEtotal :   -5.3303048588E+01 Ha)
 
 CALCULATION OF EFFECTIVE MASSES
 NOTE : Additional infos (eff. mass eigenvalues, eigenvectors and, if degenerate, average mass) are available in stdout.

 K-point ( 0.500, 0.000, 0.000) | band =    29
 Effective mass tensor:
             -5.2375102728             -2.1588018884             -3.8670352321
             -2.1588018884             -6.1328239318              0.5667194364
             -3.8670352321              0.5667194364            -13.5508719892
 Effective mass tensor eigenvalues:
            -15.0796105845             -7.4424176664             -2.3991779430
 Angular average effective mass 1/(<1/m>)=  -4.8583854868
 Angular average effective mass for Frohlich model (<m**0.5>)**2=  -5.7657413368
 Effective masses along directions: (cart. coord. / red. coord. -> eff. mass)
    1:   1.000000  0.000000  0.000000 /   0.902971  0.429701  0.000000 ->  -3.2525241304
    2:   0.000000  1.000000  0.000000 /   0.000000  1.000000  0.000000 ->  -4.8065369261
    3:   0.000000  0.000000  1.000000 /   0.557879  0.557879  0.614445 ->  -9.8053094506
    4:   0.577350  0.577350  0.577350 /   0.597090  0.664106  0.449941 -> -10.6108349613
    5:   0.000000  0.707107  0.707107 /   0.488541  0.686878  0.538076 ->  -5.0749590909
    6:   0.707107  0.000000  0.707107 /   0.664574  0.554569  0.500794 ->  -8.9208556783
    7:   0.707107  0.707107  0.000000 /   0.593697  0.804689  0.000000 ->  -7.0938747649

 K-point ( 0.500, 0.000, 0.000) | band =    30
 Effective mass tensor:
              0.7258446492              0.1779311242             -0.0168472073
              0.1779311242              0.9975542780              0.1255349470
             -0.0168472073              0.1255349470              1.5286142625
 Effective mass tensor eigenvalues:
              0.6320929129              1.0624741293              1.5574461476
 Angular average effective mass 1/(<1/m>)=   0.9477708563
 Angular average effective mass for Frohlich model (<m**0.5>)**2=   0.9877945041
 Effective masses along directions: (cart. coord. / red. coord. -> eff. mass)
    1:   1.000000  0.000000  0.000000 /   0.902971  0.429701  0.000000 ->   0.6930897979
    2:   0.000000  1.000000  0.000000 /   0.000000  1.000000  0.000000 ->   0.9429351971
    3:   0.000000  0.000000  1.000000 /   0.557879  0.557879  0.614445 ->   1.5105984116
    4:   0.577350  0.577350  0.577350 /   0.597090  0.664106  0.449941 ->   1.1829261766
    5:   0.000000  0.707107  0.707107 /   0.488541  0.686878  0.538076 ->   1.2965590605
    6:   0.707107  0.000000  0.707107 /   0.664574  0.554569  0.500794 ->   0.9175787053
    7:   0.707107  0.707107  0.000000 /   0.593697  0.804689  0.000000 ->   1.0105032035

 END OF EFFECTIVE MASSES SECTION

================================================================================
 
 ---- first-order wavefunction calculations are completed ----
 
 
 Total localisation tensor (bohr^2) in cartesian coordinates
  WARNING : still subject to testing - especially symmetries.
      direction              matrix element
   alpha     beta       real part   imaginary part
     1        1       1.5764505001    0.0000000000
     1        2       0.4625657070    0.0000000000
     1        3       4.0124186367    0.0000000000
     2        1       0.4625657070    0.0000000000
     2        2       0.8549155529    0.0000000000
     2        3       2.1058204803    0.0000000000
     3        1       4.0124186367    0.0000000000
     3        2       2.1058204803    0.0000000000
     3        3      17.7034313089    0.0000000000
 
 respfn : d/dk was computed, but no 2DTE, so no DDB output.
 
== END DATASET(S) ==============================================================
================================================================================
  
 -outvars: echo values of variables after computation  --------
            acell      1.0000000000E+00  1.0000000000E+00  1.0000000000E+00 Bohr
              amu      1.37327000E+02  6.35460000E+01  7.99040000E+01
                       1.59994000E+01
             ecut      4.60000000E+01 Hartree
           etotal     -5.3303048588E+01
            fcart      0.0000000000E+00  0.0000000000E+00  0.0000000000E+00
                       0.0000000000E+00  0.0000000000E+00  0.0000000000E+00
                       0.0000000000E+00  0.0000000000E+00  0.0000000000E+00
                       0.0000000000E+00  0.0000000000E+00  0.0000000000E+00
                       0.0000000000E+00  0.0000000000E+00  0.0000000000E+00
                       0.0000000000E+00  0.0000000000E+00  0.0000000000E+00
-          fftalg         512
           irdden           1
           irdwfk           1
           istwfk        1
              ixc     -116133
              kpt      5.00000000E-01  0.00000000E+00  0.00000000E+00
           kptopt           0
P           mkmem           1
P          mkqmem           1
P          mk1mem           1
            natom           6
            nband          38
           nbdbuf           4
            ngfft         120     120     120
             nkpt           1
            nstep        1000
             nsym          12
           ntypat           4
              occ      2.000000  2.000000  2.000000  2.000000  2.000000  2.000000
                       2.000000  2.000000  2.000000  2.000000  2.000000  2.000000
                       2.000000  2.000000  2.000000  2.000000  2.000000  2.000000
                       2.000000  2.000000  2.000000  2.000000  2.000000  2.000000
                       2.000000  2.000000  2.000000  2.000000  2.000000  0.000000
                       0.000000  0.000000  0.000000  0.000000  0.000000  0.000000
                       0.000000  0.000000
        optdriver           1
            prtwf          -1
            rfdir           1       1       1
           rfelfd           2
            rprim      7.8923220113E+00  0.0000000000E+00  1.7097997575E+01
                       3.7557557308E+00  6.9414008399E+00  1.7097997575E+01
                       0.0000000000E+00  0.0000000000E+00  1.8831629452E+01
          spgroup         166
           strten      0.0000000000E+00  0.0000000000E+00  0.0000000000E+00
                       0.0000000000E+00  0.0000000000E+00  0.0000000000E+00
           symrel      1  0  0   0  1  0   0  0  1      -1  0  0   0 -1  0   0  0 -1
                       0  1  0   1  0  0   0  0  1       0 -1  0  -1  0  0   0  0 -1
                       0  0  1   1  0  0   0  1  0       0  0 -1  -1  0  0   0 -1  0
                       1  0  0   0  0  1   0  1  0      -1  0  0   0  0 -1   0 -1  0
                       0  1  0   0  0  1   1  0  0       0 -1  0   0  0 -1  -1  0  0
                       0  0  1   0  1  0   1  0  0       0  0 -1   0 -1  0  -1  0  0
           tolwfr      1.00000000E-20
            typat      1  1  2  3  4  4
           useylm           1
           xangst      1.5515330723E+00  9.2460002495E-01  7.0633211020E+00
                       4.6123641927E+00  2.7486310952E+00  2.0997689263E+01
                       3.0819486325E+00  1.8366155601E+00  1.4030505182E+01
                       0.0000000000E+00  0.0000000000E+00  0.0000000000E+00
                       3.4614228037E+00  2.0627543608E+00  1.5758053225E+01
                       2.7024744613E+00  1.6104767594E+00  1.2302957140E+01
            xcart      2.9319725927E+00  1.7472408296E+00  1.3347742471E+01
                       8.7161051494E+00  5.1941600103E+00  3.9679882130E+01
                       5.8240388710E+00  3.4707004200E+00  2.6513812301E+01
                       0.0000000000E+00  0.0000000000E+00  0.0000000000E+00
                       6.5411411292E+00  3.8980408213E+00  2.9778404982E+01
                       5.1069366129E+00  3.0433600186E+00  2.3249219620E+01
             xred      2.5171300000E-01  2.5171300000E-01  2.5171300000E-01
                       7.4828700000E-01  7.4828700000E-01  7.4828700000E-01
                       5.0000000000E-01  5.0000000000E-01  5.0000000000E-01
                       0.0000000000E+00  0.0000000000E+00  0.0000000000E+00
                       5.6156400000E-01  5.6156400000E-01  5.6156400000E-01
                       4.3843600000E-01  4.3843600000E-01  4.3843600000E-01
            znucl       56.00000   29.00000   35.00000    8.00000
 
================================================================================


- Timing analysis has been suppressed with timopt=0



================================================================================

 Suggested references for the acknowledgment of ABINIT usage.

 The users of ABINIT have little formal obligations with respect to the ABINIT group
 (those specified in the GNU General Public License, http://www.gnu.org/copyleft/gpl.txt).
 However, it is common practice in the scientific literature,
 to acknowledge the efforts of people that have made the research possible.
 In this spirit, please find below suggested citations of work written by ABINIT developers,
 corresponding to implementations inside of ABINIT that you have used in the present run.
 Note also that it will be of great value to readers of publications presenting these results,
 to read papers enabling them to understand the theoretical formalism and details
 of the ABINIT implementation.
 For information on why they are suggested, see also https://docs.abinit.org/theory/acknowledgments.
-
- [1] Precise effective masses from density functional perturbation theory
- J. Laflamme Janssen, Y. Gillet, S. Ponce, A. Martin, M. Torrent, and X. Gonze. Phys. Rev. B 93, 205147 (2016)
- Comment: in case the DFPT prediction of effective masses is used.
- Strong suggestion to cite this paper in your publications.
- DOI and bibtex: see https://docs.abinit.org/theory/bibliography/#laflamme2016
-
- [2] Libxc: A library of exchange and correlation functionals for density functional theory.
- M.A.L. Marques, M.J.T. Oliveira, T. Burnus, Computer Physics Communications 183, 2227 (2012).
- Comment: to be cited when LibXC is used (negative value of ixc)
- Strong suggestion to cite this paper.
- DOI and bibtex: see https://docs.abinit.org/theory/bibliography/#marques2012
-
- [3] The Abinit project: Impact, environment and recent developments.
- Computer Phys. Comm. 248, 107042 (2020).
- X.Gonze, B. Amadon, G. Antonius, F.Arnardi, L.Baguet, J.-M.Beuken,
- J.Bieder, F.Bottin, J.Bouchet, E.Bousquet, N.Brouwer, F.Bruneval,
- G.Brunin, T.Cavignac, J.-B. Charraud, Wei Chen, M.Cote, S.Cottenier,
- J.Denier, G.Geneste, Ph.Ghosez, M.Giantomassi, Y.Gillet, O.Gingras,
- D.R.Hamann, G.Hautier, Xu He, N.Helbig, N.Holzwarth, Y.Jia, F.Jollet,
- W.Lafargue-Dit-Hauret, K.Lejaeghere, M.A.L.Marques, A.Martin, C.Martins,
- H.P.C. Miranda, F.Naccarato, K. Persson, G.Petretto, V.Planes, Y.Pouillon,
- S.Prokhorenko, F.Ricci, G.-M.Rignanese, A.H.Romero, M.M.Schmitt, M.Torrent,
- M.J.van Setten, B.Van Troeye, M.J.Verstraete, G.Zerah and J.W.Zwanzig
- Comment: the fifth generic paper describing the ABINIT project.
- Note that a version of this paper, that is not formatted for Computer Phys. Comm. 
- is available at https://www.abinit.org/sites/default/files/ABINIT20.pdf .
- The licence allows the authors to put it on the Web.
- DOI and bibtex: see https://docs.abinit.org/theory/bibliography/#gonze2020
-
- [4] First-principles responses of solids to atomic displacements and homogeneous electric fields:,
- implementation of a conjugate-gradient algorithm. X. Gonze, Phys. Rev. B55, 10337 (1997).
- Comment: Non-vanishing rfphon and/or rfelfd, in the norm-conserving case.
- DOI and bibtex: see https://docs.abinit.org/theory/bibliography/#gonze1997
-
- [5] Dynamical matrices, Born effective charges, dielectric permittivity tensors, and ,
- interatomic force constants from density-functional perturbation theory,
- X. Gonze and C. Lee, Phys. Rev. B55, 10355 (1997).
- Comment: Non-vanishing rfphon and/or rfelfd, in the norm-conserving case.
- DOI and bibtex: see https://docs.abinit.org/theory/bibliography/#gonze1997a
-
- [6] Optimized norm-conserving Vanderbilt pseudopotentials.
- D.R. Hamann, Phys. Rev. B 88, 085117 (2013).
- Comment: Some pseudopotential generated using the ONCVPSP code were used.
- DOI and bibtex: see https://docs.abinit.org/theory/bibliography/#hamann2013
-
- [7] ABINIT: Overview, and focus on selected capabilities
- J. Chem. Phys. 152, 124102 (2020).
- A. Romero, D.C. Allan, B. Amadon, G. Antonius, T. Applencourt, L.Baguet,
- J.Bieder, F.Bottin, J.Bouchet, E.Bousquet, F.Bruneval,
- G.Brunin, D.Caliste, M.Cote,
- J.Denier, C. Dreyer, Ph.Ghosez, M.Giantomassi, Y.Gillet, O.Gingras,
- D.R.Hamann, G.Hautier, F.Jollet, G. Jomard,
- A.Martin, 
- H.P.C. Miranda, F.Naccarato, G.Petretto, N.A. Pike, V.Planes,
- S.Prokhorenko, T. Rangel, F.Ricci, G.-M.Rignanese, M.Royo, M.Stengel, M.Torrent,
- M.J.van Setten, B.Van Troeye, M.J.Verstraete, J.Wiktor, J.W.Zwanziger, and X.Gonze.
- Comment: a global overview of ABINIT, with focus on selected capabilities .
- Note that a version of this paper, that is not formatted for J. Chem. Phys 
- is available at https://www.abinit.org/sites/default/files/ABINIT20_JPC.pdf .
- The licence allows the authors to put it on the Web.
- DOI and bibtex: see https://docs.abinit.org/theory/bibliography/#romero2020
-
- [8] Recent developments in the ABINIT software package.
- Computer Phys. Comm. 205, 106 (2016).
- X.Gonze, F.Jollet, F.Abreu Araujo, D.Adams, B.Amadon, T.Applencourt,
- C.Audouze, J.-M.Beuken, J.Bieder, A.Bokhanchuk, E.Bousquet, F.Bruneval
- D.Caliste, M.Cote, F.Dahm, F.Da Pieve, M.Delaveau, M.Di Gennaro,
- B.Dorado, C.Espejo, G.Geneste, L.Genovese, A.Gerossier, M.Giantomassi,
- Y.Gillet, D.R.Hamann, L.He, G.Jomard, J.Laflamme Janssen, S.Le Roux,
- A.Levitt, A.Lherbier, F.Liu, I.Lukacevic, A.Martin, C.Martins,
- M.J.T.Oliveira, S.Ponce, Y.Pouillon, T.Rangel, G.-M.Rignanese,
- A.H.Romero, B.Rousseau, O.Rubel, A.A.Shukri, M.Stankovski, M.Torrent,
- M.J.Van Setten, B.Van Troeye, M.J.Verstraete, D.Waroquier, J.Wiktor,
- B.Xu, A.Zhou, J.W.Zwanziger.
- Comment: the fourth generic paper describing the ABINIT project.
- Note that a version of this paper, that is not formatted for Computer Phys. Comm. 
- is available at https://www.abinit.org/sites/default/files/ABINIT16.pdf .
- The licence allows the authors to put it on the Web.
- DOI and bibtex: see https://docs.abinit.org/theory/bibliography/#gonze2016
-
- Proc.   0 individual time (sec): cpu=        322.1  wall=        327.9
 
================================================================================
 
 Calculation completed.
.Delivered   6 WARNINGs and   5 COMMENTs to log file.
+Overall time at end (sec) : cpu=        322.1  wall=        327.9
