
.Version 9.5.2 of ABINIT 
.(MPI version, prepared for a x86_64_linux_intel19.1 computer) 

.Copyright (C) 1998-2021 ABINIT group . 
 ABINIT comes with ABSOLUTELY NO WARRANTY.
 It is free software, and you are welcome to redistribute it
 under certain conditions (GNU General Public License,
 see ~abinit/COPYING or http://www.gnu.org/copyleft/gpl.txt).

 ABINIT is a project of the Universite Catholique de Louvain,
 Corning Inc. and other collaborators, see ~abinit/doc/developers/contributors.txt .
 Please read https://docs.abinit.org/theory/acknowledgments for suggested
 acknowledgments of the ABINIT effort.
 For more information, see https://www.abinit.org .

.Starting date : Tue 25 May 2021.
- ( at 11h17 )
  
- input  file    -> /scratch/users/j/a/jabreu/flow_simple_10atoms/flow/w442/t1/run.abi
- output file    -> /scratch/users/j/a/jabreu/flow_simple_10atoms/flow/w442/t1/run.abo
- root for input  files -> /scratch/users/j/a/jabreu/flow_simple_10atoms/flow/w442/t1/indata/in
- root for output files -> /scratch/users/j/a/jabreu/flow_simple_10atoms/flow/w442/t1/outdata/out
 
 
 Symmetries : space group C2/m (# 12); Bravais mC (1-face-center monocl.)
================================================================================
 Values of the parameters that define the memory need of the present run (RF).
     intxc =       0      iscf =       7    lmnmax =      25     lnmax =       7
     mgfft =      90  mpssoang =       4    mqgrid =    3877     natom =      10
  nloc_mem =       1    nspden =       1   nspinor =       1    nsppol =       1
      nsym =       4    n1xccc =    2501    ntypat =       3    occopt =       1
   xclevel =       2
-    mband =          58        mffmem =           1         mkmem =           2
-   mkqmem =           2        mk1mem =           2           mpw =       29443
      nfft =      729000          nkpt =           2
================================================================================
P This job should need less than                     733.171 Mbytes of memory.
  Rough estimation (10% accuracy) of disk space for files :
_ WF disk file :     52.117 Mbytes ; DEN or POT disk file :      5.564 Mbytes.
================================================================================
 
--------------------------------------------------------------------------------
------------- Echo of variables that govern the present computation ------------
--------------------------------------------------------------------------------
-
- outvars: echo of selected default values                                      
-   iomode0 =  0 , fftalg0 =512 , wfoptalg0 =  0
-
- outvars: echo of global parameters not present in the input file              
-  max_nthreads =    0
-
 -outvars: echo values of preprocessed input variables --------
            acell      1.0000000000E+00  1.0000000000E+00  1.0000000000E+00 Bohr
              amu      8.54678000E+01  1.96966540E+02  1.26904470E+02
             ecut      3.80000000E+01 Hartree
-          fftalg         512
           irdden           1
           irdwfk           1
           istwfk        1    0
              ixc     -116133
              kpt      5.00000000E-01  5.00000000E-01  5.00000000E-01
                       2.62484740E-01 -2.62484740E-01  0.00000000E+00
           kptopt           0
P           mkmem           2
P          mkqmem           2
P          mk1mem           2
            natom          10
            nband          58
           nbdbuf           4
            ngfft          90      90      90
             nkpt           2
            nstep        2000
             nsym           4
           ntypat           3
              occ      2.000000  2.000000  2.000000  2.000000  2.000000  2.000000
                       2.000000  2.000000  2.000000  2.000000  2.000000  2.000000
                       2.000000  2.000000  2.000000  2.000000  2.000000  2.000000
                       2.000000  2.000000  2.000000  2.000000  2.000000  2.000000
                       2.000000  2.000000  2.000000  2.000000  2.000000  2.000000
                       2.000000  2.000000  2.000000  2.000000  2.000000  2.000000
                       2.000000  2.000000  2.000000  2.000000  2.000000  2.000000
                       2.000000  2.000000  2.000000  2.000000  2.000000  2.000000
                       2.000000  0.000000  0.000000  0.000000  0.000000  0.000000
                       0.000000  0.000000  0.000000  0.000000
        optdriver           1
            prtwf          -1
            rfdir           1       1       1
           rfelfd           2
            rprim      1.3362301564E+01  0.0000000000E+00  6.0407026034E+00
                       5.0207692905E+00  1.2383173213E+01  6.0407026034E+00
                       0.0000000000E+00  0.0000000000E+00  1.5911011673E+01
          spgroup          12
           symrel      1  0  0   0  1  0   0  0  1      -1  0  0   0 -1  0   0  0 -1
                       0 -1  0  -1  0  0   0  0 -1       0  1  0   1  0  0   0  0  1
           tolwfr      1.00000000E-20
            typat      1  1  2  2  3  3  3  3  3  3
           useylm           1
              wtk        0.50000    0.50000
           xangst      7.0499176734E+00  4.7489536638E+00  7.0131757776E+00
                       2.6779844468E+00  1.8039393705E+00  7.7997732487E+00
                       0.0000000000E+00  0.0000000000E+00  4.2098723716E+00
                       4.8639510601E+00  3.2764465172E+00  3.1966021416E+00
                       2.7027225019E+00  1.8206033775E+00  3.0716060414E+00
                       4.0179532530E+00  5.1989539343E+00  9.2738024790E+00
                       5.7099488672E+00  1.3539391001E+00  5.5391465474E+00
                       3.4001925567E+00  4.7828190151E+00  5.5391465474E+00
                       6.3277095635E+00  1.7700740193E+00  9.2738024790E+00
                       7.0251796183E+00  4.7322896569E+00  1.1741342985E+01
            xcart      1.3322413662E+01  8.9742218424E+00  1.3252981541E+01
                       5.0606571925E+00  3.4089513707E+00  1.4739435339E+01
                       0.0000000000E+00  0.0000000000E+00  7.9555058367E+00
                       9.1915354273E+00  6.1915866065E+00  6.0407026034E+00
                       5.1074053417E+00  3.4404417801E+00  5.8044942064E+00
                       7.5928312628E+00  9.8245991133E+00  1.7524946896E+01
                       1.0790239592E+01  2.5585740998E+00  1.0467469984E+01
                       6.4254327313E+00  9.0382180816E+00  1.0467469984E+01
                       1.1957638123E+01  3.3449551315E+00  1.7524946896E+01
                       1.3275665513E+01  8.9427314330E+00  2.2187922674E+01
             xred      7.2471100000E-01  7.2471100000E-01  2.8266300000E-01
                       2.7528900000E-01  2.7528900000E-01  7.1733700000E-01
                       0.0000000000E+00  0.0000000000E+00  5.0000000000E-01
                       5.0000000000E-01  5.0000000000E-01  0.0000000000E+00
                       2.7783200000E-01  2.7783200000E-01  1.5384900000E-01
                       2.7012100000E-01  7.9338300000E-01  6.9767000000E-01
                       7.2987900000E-01  2.0661700000E-01  3.0233000000E-01
                       2.0661700000E-01  7.2987900000E-01  3.0233000000E-01
                       7.9338300000E-01  2.7012100000E-01  6.9767000000E-01
                       7.2216800000E-01  7.2216800000E-01  8.4615100000E-01
            znucl       37.00000   79.00000   53.00000
 
================================================================================
 
 chkinp: Checking input parameters for consistency.
 
================================================================================
== DATASET  1 ==================================================================
-   mpi_nproc: 1, omp_nthreads: -1 (-1 if OMP is not activated)
 

--- !DatasetInfo
iteration_state: {dtset: 1, }
dimensions: {natom: 10, nkpt: 2, mband: 58, nsppol: 1, nspinor: 1, nspden: 1, mpw: 29443, }
cutoff_energies: {ecut:  38.0, pawecutdg:  -1.0, }
electrons: {nelect:   9.80000000E+01, charge:   0.00000000E+00, occopt:   1.00000000E+00, tsmear:   1.00000000E-02, }
meta: {optdriver: 1, rfelfd: 2, }
...

 Real(R)+Recip(G) space primitive vectors, cartesian coordinates (Bohr,Bohr^-1):
 R(1)= 13.3623016  0.0000000  6.0407026  G(1)=  0.0748374 -0.0303429  0.0000000
 R(2)=  5.0207693 12.3831732  6.0407026  G(2)=  0.0000000  0.0807547  0.0000000
 R(3)=  0.0000000  0.0000000 15.9110117  G(3)= -0.0284124 -0.0191391  0.0628496
 Unit cell volume ucvol=  2.6327584E+03 bohr^3
 Angles (23,13,12)=  6.56736767E+01  6.56736767E+01  6.12054006E+01 degrees
 
 getcut: wavevector=  0.0000  0.0000  0.0000  ngfft=  90  90  90
         ecut(hartree)=     38.000   => boxcut(ratio)=   2.03840
 
--- Pseudopotential description ------------------------------------------------
- pspini: atom type   1  psp file is /scratch/users/j/a/jabreu/pseudos/PBEsol/Rb.psp8
- pspatm: opening atomic psp file    /scratch/users/j/a/jabreu/pseudos/PBEsol/Rb.psp8
- Rb    ONCVPSP-3.3.0  r_core=   1.71227   1.75361   1.90633
- 37.00000   9.00000    180112                znucl, zion, pspdat
    8 -116133    2    4       600   0.00000   pspcod,pspxc,lmax,lloc,mmax,r2well
    5.99000000000000    7.00000000000000    0.00000000000000   rchrg,fchrg,qchrg
     nproj     2     2     2
     extension_switch     1
  pspatm : epsatm=   34.48400912
         --- l  ekb(1:nproj) -->
             0    8.196957   -0.477221
             1    3.231347   -0.378736
             2   -1.047201    0.996637
 pspatm: atomic psp has been read  and splines computed
 
- pspini: atom type   2  psp file is /scratch/users/j/a/jabreu/pseudos/PBEsol/Au.psp8
- pspatm: opening atomic psp file    /scratch/users/j/a/jabreu/pseudos/PBEsol/Au.psp8
- Au    ONCVPSP-3.3.0  r_core=   1.45604   1.56407   1.56407   1.60183
- 79.00000  19.00000    180112                znucl, zion, pspdat
    8 -116133    3    4       500   0.00000   pspcod,pspxc,lmax,lloc,mmax,r2well
    4.99000000000000    5.00000000000000    0.00000000000000   rchrg,fchrg,qchrg
     nproj     2     2     2     1
     extension_switch     1
  pspatm : epsatm=   32.21965837
         --- l  ekb(1:nproj) -->
             0    9.413866   -0.196587
             1    2.474292   -1.517497
             2    1.503483    0.298081
             3    1.177996
 pspatm: atomic psp has been read  and splines computed
 
- pspini: atom type   3  psp file is /scratch/users/j/a/jabreu/pseudos/PBEsol/I.psp8
- pspatm: opening atomic psp file    /scratch/users/j/a/jabreu/pseudos/PBEsol/I.psp8
- I     ONCVPSP-3.3.0  r_core=   2.02042   2.17032   2.27639
- 53.00000   7.00000    180112                znucl, zion, pspdat
    8 -116133    2    4       600   0.00000   pspcod,pspxc,lmax,lloc,mmax,r2well
    5.99000000000000    4.00000000000000    0.00000000000000   rchrg,fchrg,qchrg
     nproj     2     2     2
     extension_switch     1
  pspatm : epsatm=   18.14229533
         --- l  ekb(1:nproj) -->
             0    6.015861    0.935228
             1    4.063749    0.754139
             2    4.149534    0.722940
 pspatm: atomic psp has been read  and splines computed
 
   2.37415885E+04                                ecore*ucvol(ha*bohr**3)
--------------------------------------------------------------------------------
 
 
 ==>  initialize data related to q vector <== 
 
 The list of irreducible perturbations for this q vector is:
    1)    idir= 1    ipert=  11
    2)    idir= 2    ipert=  11
    3)    idir= 3    ipert=  11
 
================================================================================
 
--------------------------------------------------------------------------------
 Perturbation wavevector (in red.coord.)   0.000000  0.000000  0.000000
 Perturbation : derivative vs k along direction   1
 
 dfpt_looppert : COMMENT -
  In a d/dk calculation, iscf is set to -3 automatically.
 The set of symmetries contains only one element for this perturbation.
 symkpt : not enough symmetry to change the number of k points.
 
--------------------------------------------------------------------------------
 
--------------------------------------------------------------------------------
 
 Initialisation of the first-order wave-functions :
  ireadwf=   0

--- !BeginCycle
iteration_state: {dtset: 1, }
solver: {iscf: 7, nstep: 2000, nline: 4, wfoptalg: 0, }
tolerances: {tolwfr: 1.00E-20, }
...
 
     iter   2DEtotal(Ha)        deltaE(Ha) residm    vres2
-ETOT  1  -30.080440106604     -3.008E+01 3.275E-02 0.000E+00
 ETOT  2  -30.096830592217     -1.639E-02 1.744E-03 0.000E+00
 ETOT  3  -30.096877495088     -4.690E-05 2.832E-04 0.000E+00
 ETOT  4  -30.096877808645     -3.136E-07 1.161E-05 0.000E+00
 ETOT  5  -30.096877811611     -2.966E-09 2.927E-06 0.000E+00
 ETOT  6  -30.096877811644     -3.275E-11 1.259E-07 0.000E+00
 ETOT  7  -30.096877811644     -4.050E-13 3.594E-08 0.000E+00
 ETOT  8  -30.096877811644      0.000E+00 2.095E-09 0.000E+00
 ETOT  9  -30.096877811644     -7.105E-15 4.632E-10 0.000E+00
 ETOT 10  -30.096877811644     -2.842E-14 4.052E-11 0.000E+00
 ETOT 11  -30.096877811644      2.842E-14 6.124E-12 0.000E+00
 ETOT 12  -30.096877811644     -1.066E-14 8.243E-13 0.000E+00
 ETOT 13  -30.096877811644      1.066E-14 8.215E-14 0.000E+00
 ETOT 14  -30.096877811644     -1.776E-14 1.736E-14 0.000E+00
 ETOT 15  -30.096877811644      3.553E-15 1.475E-15 0.000E+00
 ETOT 16  -30.096877811644      0.000E+00 3.737E-16 0.000E+00
 ETOT 17  -30.096877811644      0.000E+00 3.184E-17 0.000E+00
 ETOT 18  -30.096877811644      0.000E+00 8.145E-18 0.000E+00
 ETOT 19  -30.096877811644      7.105E-15 6.946E-19 0.000E+00
 ETOT 20  -30.096877811644      0.000E+00 1.788E-19 0.000E+00
 ETOT 21  -30.096877811644      1.421E-14 1.525E-20 0.000E+00
 ETOT 22  -30.096877811644     -1.421E-14 9.964E-21 0.000E+00
 
 At SCF step   22   max residual=  9.96E-21 < tolwfr=  1.00E-20 =>converged.
================================================================================
 
 ----iterations are completed or convergence reached----
 
 dfpt_looppert: DFPT cycle converged with prtwf=-1. Will skip output of the 1st-order WFK file.
 dfpt_looppert : ek2=    5.0460542177E+01
          f-sum rule ratio=    1.0919997501E+00
 prteigrs : about to open file /scratch/users/j/a/jabreu/flow_simple_10atoms/flow/w442/t1/tmpdata/tmp_1WF1_EIG
 Expectation of eigenvalue derivatives (hartree) for nkpt=   2  k points:
  (in case of degenerate eigenvalues, averaged derivative)
 kpt#   1, nband= 58, wtk=  0.50000, kpt=  0.5000  0.5000  0.5000 (reduced coord)
  -0.00000    0.00000    0.00000    0.00000    0.00000   -0.00000    0.00000   -0.00000
   0.00000    0.00000   -0.00000    0.00000   -0.00000    0.00000   -0.00000   -0.00000
   0.00000    0.00000   -0.00000    0.00000   -0.00000    0.00000   -0.00000   -0.00000
   0.00000   -0.00000    0.00000    0.00000    0.00000   -0.00000    0.00000    0.00000
   0.00000   -0.00000   -0.00000   -0.00000    0.00000    0.00000   -0.00000    0.00000
  -0.00000   -0.00000    0.00000    0.00000    0.00000    0.00000    0.00000    0.00000
  -0.00000   -0.00000   -0.00000    0.00000   -0.00000   -0.00000    0.00001   -0.00001
  -0.00090    0.01957
 prteigrs : prtvol=0 or 1, do not print more k-points.
 
 
 Eight components of 2nd-order total energy (hartree) are
 1,2,3: 0th-order hamiltonian combined with 1st-order wavefunctions
     kin0=   3.83673052E+01 eigvalue=   2.04157081E+00  local=  -2.29089430E+01
 4,5,6: 1st-order hamiltonian combined with 1st and 0th-order wfs
     kin1=  -5.51028994E+01  Hartree=   0.00000000E+00     xc=   0.00000000E+00
 7,8,9: eventually, occupation + non-local contributions
    edocc=   8.61937198E+00     enl0=   3.97757276E+00   enl1=  -5.09085618E+00
 1-9 gives the relaxation energy (to be shifted if some occ is /=2.0)
   erelax=  -3.00968778E+01
  No Ewald or frozen-wf contrib.: the relaxation energy is the total one
 2DEtotal=   -0.3009687781E+02 Ha. Also 2DEtotal=   -0.818977695120E+03 eV
    (  non-var. 2DEtotal :   -3.0096877811E+01 Ha)
 
--------------------------------------------------------------------------------
 Perturbation wavevector (in red.coord.)   0.000000  0.000000  0.000000
 Perturbation : derivative vs k along direction   2
 The set of symmetries contains only one element for this perturbation.
 symkpt : not enough symmetry to change the number of k points.
 
--------------------------------------------------------------------------------
 
--------------------------------------------------------------------------------
 
 Initialisation of the first-order wave-functions :
  ireadwf=   0

--- !BeginCycle
iteration_state: {dtset: 1, }
solver: {iscf: 7, nstep: 2000, nline: 4, wfoptalg: 0, }
tolerances: {tolwfr: 1.00E-20, }
...
 
     iter   2DEtotal(Ha)        deltaE(Ha) residm    vres2
-ETOT  1  -30.080487110146     -3.008E+01 3.275E-02 0.000E+00
 ETOT  2  -30.096877726294     -1.639E-02 1.744E-03 0.000E+00
 ETOT  3  -30.096924630858     -4.690E-05 2.832E-04 0.000E+00
 ETOT  4  -30.096924944451     -3.136E-07 1.161E-05 0.000E+00
 ETOT  5  -30.096924947418     -2.967E-09 2.928E-06 0.000E+00
 ETOT  6  -30.096924947451     -3.272E-11 1.260E-07 0.000E+00
 ETOT  7  -30.096924947451     -4.334E-13 3.595E-08 0.000E+00
 ETOT  8  -30.096924947451      2.487E-14 2.091E-09 0.000E+00
 ETOT  9  -30.096924947451      0.000E+00 4.633E-10 0.000E+00
 ETOT 10  -30.096924947451      1.421E-14 4.042E-11 0.000E+00
 ETOT 11  -30.096924947451     -7.105E-15 6.125E-12 0.000E+00
 ETOT 12  -30.096924947451     -1.066E-14 8.218E-13 0.000E+00
 ETOT 13  -30.096924947451      1.066E-14 8.216E-14 0.000E+00
 ETOT 14  -30.096924947451      7.105E-15 1.730E-14 0.000E+00
 ETOT 15  -30.096924947451      0.000E+00 1.469E-15 0.000E+00
 ETOT 16  -30.096924947451      0.000E+00 3.722E-16 0.000E+00
 ETOT 17  -30.096924947451     -3.553E-15 3.169E-17 0.000E+00
 ETOT 18  -30.096924947451      7.105E-15 8.109E-18 0.000E+00
 ETOT 19  -30.096924947451     -1.066E-14 6.912E-19 0.000E+00
 ETOT 20  -30.096924947451      0.000E+00 1.780E-19 0.000E+00
 ETOT 21  -30.096924947451      7.105E-15 1.517E-20 0.000E+00
 ETOT 22  -30.096924947451     -7.105E-15 9.964E-21 0.000E+00
 
 At SCF step   22   max residual=  9.96E-21 < tolwfr=  1.00E-20 =>converged.
================================================================================
 
 ----iterations are completed or convergence reached----
 
 dfpt_looppert: DFPT cycle converged with prtwf=-1. Will skip output of the 1st-order WFK file.
 dfpt_looppert : ek2=    5.0460542176E+01
          f-sum rule ratio=    1.0920014415E+00
 prteigrs : about to open file /scratch/users/j/a/jabreu/flow_simple_10atoms/flow/w442/t1/tmpdata/tmp_1WF1_EIG
 Expectation of eigenvalue derivatives (hartree) for nkpt=   2  k points:
  (in case of degenerate eigenvalues, averaged derivative)
 kpt#   1, nband= 58, wtk=  0.50000, kpt=  0.5000  0.5000  0.5000 (reduced coord)
  -0.00000   -0.00000   -0.00000    0.00000    0.00000   -0.00000   -0.00000    0.00000
   0.00000    0.00000   -0.00000   -0.00000    0.00000   -0.00000   -0.00000    0.00000
   0.00000   -0.00000    0.00000   -0.00000   -0.00000   -0.00000   -0.00000    0.00000
   0.00000   -0.00000    0.00000    0.00000   -0.00000   -0.00000   -0.00000    0.00000
  -0.00000    0.00000   -0.00000    0.00000   -0.00000   -0.00000    0.00000   -0.00000
   0.00000    0.00000   -0.00000   -0.00000   -0.00000    0.00000    0.00000   -0.00000
   0.00000   -0.00000    0.00000   -0.00000   -0.00000    0.00000    0.00001   -0.00000
   0.00089   -0.01959
 prteigrs : prtvol=0 or 1, do not print more k-points.
 
 
 Eight components of 2nd-order total energy (hartree) are
 1,2,3: 0th-order hamiltonian combined with 1st-order wavefunctions
     kin0=   3.83671437E+01 eigvalue=   2.04158472E+00  local=  -2.29088287E+01
 4,5,6: 1st-order hamiltonian combined with 1st and 0th-order wfs
     kin1=  -5.51029848E+01  Hartree=   0.00000000E+00     xc=   0.00000000E+00
 7,8,9: eventually, occupation + non-local contributions
    edocc=   8.61947345E+00     enl0=   3.97755178E+00   enl1=  -5.09086510E+00
 1-9 gives the relaxation energy (to be shifted if some occ is /=2.0)
   erelax=  -3.00969249E+01
  No Ewald or frozen-wf contrib.: the relaxation energy is the total one
 2DEtotal=   -0.3009692495E+02 Ha. Also 2DEtotal=   -0.818978977751E+03 eV
    (  non-var. 2DEtotal :   -3.0096924947E+01 Ha)
 
--------------------------------------------------------------------------------
 Perturbation wavevector (in red.coord.)   0.000000  0.000000  0.000000
 Perturbation : derivative vs k along direction   3
 The set of symmetries contains only one element for this perturbation.
 symkpt : not enough symmetry to change the number of k points.
 
--------------------------------------------------------------------------------
 
--------------------------------------------------------------------------------
 
 Initialisation of the first-order wave-functions :
  ireadwf=   0

--- !BeginCycle
iteration_state: {dtset: 1, }
solver: {iscf: 7, nstep: 2000, nline: 4, wfoptalg: 0, }
tolerances: {tolwfr: 1.00E-20, }
...
 
     iter   2DEtotal(Ha)        deltaE(Ha) residm    vres2
-ETOT  1  -25.140684038546     -2.514E+01 1.611E-02 0.000E+00
 ETOT  2  -25.153775350862     -1.309E-02 1.340E-03 0.000E+00
 ETOT  3  -25.153813263895     -3.791E-05 6.196E-05 0.000E+00
 ETOT  4  -25.153813510673     -2.468E-07 9.273E-06 0.000E+00
 ETOT  5  -25.153813512965     -2.292E-09 6.541E-07 0.000E+00
 ETOT  6  -25.153813512989     -2.444E-11 1.178E-07 0.000E+00
 ETOT  7  -25.153813512990     -2.736E-13 8.741E-09 0.000E+00
 ETOT  8  -25.153813512990      3.553E-15 1.593E-09 0.000E+00
 ETOT  9  -25.153813512990     -1.776E-14 1.200E-10 0.000E+00
 ETOT 10  -25.153813512990     -1.421E-14 2.194E-11 0.000E+00
 ETOT 11  -25.153813512990      3.553E-15 1.663E-12 0.000E+00
 ETOT 12  -25.153813512990      7.105E-15 3.050E-13 0.000E+00
 ETOT 13  -25.153813512990     -3.553E-15 2.319E-14 0.000E+00
 ETOT 14  -25.153813512990      3.553E-15 4.264E-15 0.000E+00
 ETOT 15  -25.153813512990      7.105E-15 3.246E-16 0.000E+00
 ETOT 16  -25.153813512990     -1.776E-14 5.984E-17 0.000E+00
 ETOT 17  -25.153813512990      2.132E-14 4.560E-18 0.000E+00
 ETOT 18  -25.153813512990     -1.421E-14 8.425E-19 0.000E+00
 ETOT 19  -25.153813512990      1.066E-14 6.423E-20 0.000E+00
 ETOT 20  -25.153813512990      7.105E-15 1.189E-20 0.000E+00
 ETOT 21  -25.153813512990      0.000E+00 9.941E-21 0.000E+00
 
 At SCF step   21   max residual=  9.94E-21 < tolwfr=  1.00E-20 =>converged.
================================================================================
 
 ----iterations are completed or convergence reached----
 
 dfpt_looppert: DFPT cycle converged with prtwf=-1. Will skip output of the 1st-order WFK file.
 dfpt_looppert : ek2=    3.9645540984E+01
          f-sum rule ratio=    1.1628135349E+00
 prteigrs : about to open file /scratch/users/j/a/jabreu/flow_simple_10atoms/flow/w442/t1/tmpdata/tmp_1WF1_EIG
 Expectation of eigenvalue derivatives (hartree) for nkpt=   2  k points:
  (in case of degenerate eigenvalues, averaged derivative)
 kpt#   1, nband= 58, wtk=  0.50000, kpt=  0.5000  0.5000  0.5000 (reduced coord)
  -0.00000   -0.00000   -0.00000   -0.00000   -0.00000    0.00000    0.00000   -0.00000
  -0.00000   -0.00000    0.00000   -0.00000    0.00000    0.00000    0.00000    0.00000
  -0.00000   -0.00000    0.00000    0.00000    0.00000    0.00000    0.00000   -0.00000
  -0.00000   -0.00000    0.00000   -0.00000    0.00000    0.00000    0.00000   -0.00000
   0.00000   -0.00000    0.00000   -0.00000   -0.00000    0.00000   -0.00000    0.00000
  -0.00000    0.00000    0.00000    0.00000    0.00000   -0.00000   -0.00000    0.00000
  -0.00000    0.00000   -0.00000    0.00000   -0.00000    0.00000    0.00000   -0.00003
  -0.00000   -0.00001
 prteigrs : prtvol=0 or 1, do not print more k-points.
 
 
 Eight components of 2nd-order total energy (hartree) are
 1,2,3: 0th-order hamiltonian combined with 1st-order wavefunctions
     kin0=   2.92232107E+01 eigvalue=   1.54859319E+00  local=  -1.73004255E+01
 4,5,6: 1st-order hamiltonian combined with 1st and 0th-order wfs
     kin1=  -4.61003717E+01  Hartree=   0.00000000E+00     xc=   0.00000000E+00
 7,8,9: eventually, occupation + non-local contributions
    edocc=   8.78429889E+00     enl0=   2.89813629E+00   enl1=  -4.20725537E+00
 1-9 gives the relaxation energy (to be shifted if some occ is /=2.0)
   erelax=  -2.51538135E+01
  No Ewald or frozen-wf contrib.: the relaxation energy is the total one
 2DEtotal=   -0.2515381351E+02 Ha. Also 2DEtotal=   -0.684470075045E+03 eV
    (  non-var. 2DEtotal :   -2.5153813513E+01 Ha)
 
 CALCULATION OF EFFECTIVE MASSES
 NOTE : Additional infos (eff. mass eigenvalues, eigenvectors and, if degenerate, average mass) are available in stdout.
 
--- !WARNING
src_file: m_efmas.F90
src_line: 0
message: |
    
    Band(s)    49,
    are not band extrema, but saddle points;
    the transport equivalent formalism breaks down in these conditions.
    The associated tensor(s) will therefore not be printed.
...
 

 K-point ( 0.500, 0.500, 0.500) | band =    49
 Effective mass tensor:
     *** SADDLE POINT: TRANSPORT EQV. EFF. MASS NOT DEFINED (see WARNING above) ***
 Angular average effective mass 1/(<1/m>)=  -0.2518172889
 Angular average effective mass for Frohlich model (<m**0.5>)**2=  -0.5454022546
 Effective masses along directions: (cart. coord. / red. coord. -> eff. mass)
    1:   1.000000  0.000000  0.000000 /   0.936101  0.351732  0.000000 ->  -0.4264011049
    2:   0.000000  1.000000  0.000000 /   0.000000  1.000000  0.000000 ->  -0.1741063260
    3:   0.000000  0.000000  1.000000 /   0.334492  0.334492  0.881040 ->  -0.2614670785
    4:   0.577350  0.577350  0.577350 /   0.565014  0.682706  0.463327 ->  -3.9695587990
    5:   0.000000  0.707107  0.707107 /   0.240841  0.734556  0.634368 ->  -0.2366609251
    6:   0.707107  0.000000  0.707107 /   0.707558  0.403372  0.580218 ->  -0.4433446070
    7:   0.707107  0.707107  0.000000 /   0.608985  0.793182  0.000000 ->   6.8277658743

 K-point ( 0.262,-0.262, 0.000) | band =    50
 Effective mass tensor:
             12.1165687924              8.0059646144             -0.5950816659
              8.0059646144              5.6245169083             -0.4008579088
             -0.5950816659             -0.4008579088              0.1044603397
 Effective mass tensor eigenvalues:
              0.0749323192              0.2315525261             17.5390611952
 Angular average effective mass 1/(<1/m>)=   0.1692900370
 Angular average effective mass for Frohlich model (<m**0.5>)**2=   0.2804862262
 Effective masses along directions: (cart. coord. / red. coord. -> eff. mass)
    1:   1.000000  0.000000  0.000000 /   0.936101  0.351732  0.000000 ->   0.7129315567
    2:   0.000000  1.000000  0.000000 /   0.000000  1.000000  0.000000 ->   0.3338342340
    3:   0.000000  0.000000  1.000000 /   0.334492  0.334492  0.881040 ->   0.0750586848
    4:   0.577350  0.577350  0.577350 /   0.565014  0.682706  0.463327 ->   0.1959745030
    5:   0.000000  0.707107  0.707107 /   0.240841  0.734556  0.634368 ->   0.1181444571
    6:   0.707107  0.000000  0.707107 /   0.707558  0.403372  0.580218 ->   0.1279495849
    7:   0.707107  0.707107  0.000000 /   0.608985  0.793182  0.000000 ->   4.2589876683

 END OF EFFECTIVE MASSES SECTION

================================================================================
 
 ---- first-order wavefunction calculations are completed ----
 
 
 Total localisation tensor (bohr^2) in cartesian coordinates
  WARNING : still subject to testing - especially symmetries.
      direction              matrix element
   alpha     beta       real part   imaginary part
     1        1       4.0874141458    0.0000000000
     1        2       1.2471945063    0.0000000000
     1        3       2.2275988236    0.0000000000
     2        1       1.2471945063    0.0000000000
     2        2       3.0760675723    0.0000000000
     2        3       1.5005531355    0.0000000000
     3        1       2.2275988236    0.0000000000
     3        2       1.5005531355    0.0000000000
     3        3       7.3356578455    0.0000000000
 
 respfn : d/dk was computed, but no 2DTE, so no DDB output.
 
== END DATASET(S) ==============================================================
================================================================================
  
 -outvars: echo values of variables after computation  --------
            acell      1.0000000000E+00  1.0000000000E+00  1.0000000000E+00 Bohr
              amu      8.54678000E+01  1.96966540E+02  1.26904470E+02
             ecut      3.80000000E+01 Hartree
           etotal     -2.5153813513E+01
            fcart      0.0000000000E+00  0.0000000000E+00  0.0000000000E+00
                       0.0000000000E+00  0.0000000000E+00  0.0000000000E+00
                       0.0000000000E+00  0.0000000000E+00  0.0000000000E+00
                       0.0000000000E+00  0.0000000000E+00  0.0000000000E+00
                       0.0000000000E+00  0.0000000000E+00  0.0000000000E+00
                       0.0000000000E+00  0.0000000000E+00  0.0000000000E+00
                       0.0000000000E+00  0.0000000000E+00  0.0000000000E+00
                       0.0000000000E+00  0.0000000000E+00  0.0000000000E+00
                       0.0000000000E+00  0.0000000000E+00  0.0000000000E+00
                       0.0000000000E+00  0.0000000000E+00  0.0000000000E+00
-          fftalg         512
           irdden           1
           irdwfk           1
           istwfk        1    0
              ixc     -116133
              kpt      5.00000000E-01  5.00000000E-01  5.00000000E-01
                       2.62484740E-01 -2.62484740E-01  0.00000000E+00
           kptopt           0
P           mkmem           2
P          mkqmem           2
P          mk1mem           2
            natom          10
            nband          58
           nbdbuf           4
            ngfft          90      90      90
             nkpt           2
            nstep        2000
             nsym           4
           ntypat           3
              occ      2.000000  2.000000  2.000000  2.000000  2.000000  2.000000
                       2.000000  2.000000  2.000000  2.000000  2.000000  2.000000
                       2.000000  2.000000  2.000000  2.000000  2.000000  2.000000
                       2.000000  2.000000  2.000000  2.000000  2.000000  2.000000
                       2.000000  2.000000  2.000000  2.000000  2.000000  2.000000
                       2.000000  2.000000  2.000000  2.000000  2.000000  2.000000
                       2.000000  2.000000  2.000000  2.000000  2.000000  2.000000
                       2.000000  2.000000  2.000000  2.000000  2.000000  2.000000
                       2.000000  0.000000  0.000000  0.000000  0.000000  0.000000
                       0.000000  0.000000  0.000000  0.000000
        optdriver           1
            prtwf          -1
            rfdir           1       1       1
           rfelfd           2
            rprim      1.3362301564E+01  0.0000000000E+00  6.0407026034E+00
                       5.0207692905E+00  1.2383173213E+01  6.0407026034E+00
                       0.0000000000E+00  0.0000000000E+00  1.5911011673E+01
          spgroup          12
           strten      0.0000000000E+00  0.0000000000E+00  0.0000000000E+00
                       0.0000000000E+00  0.0000000000E+00  0.0000000000E+00
           symrel      1  0  0   0  1  0   0  0  1      -1  0  0   0 -1  0   0  0 -1
                       0 -1  0  -1  0  0   0  0 -1       0  1  0   1  0  0   0  0  1
           tolwfr      1.00000000E-20
            typat      1  1  2  2  3  3  3  3  3  3
           useylm           1
              wtk        0.50000    0.50000
           xangst      7.0499176734E+00  4.7489536638E+00  7.0131757776E+00
                       2.6779844468E+00  1.8039393705E+00  7.7997732487E+00
                       0.0000000000E+00  0.0000000000E+00  4.2098723716E+00
                       4.8639510601E+00  3.2764465172E+00  3.1966021416E+00
                       2.7027225019E+00  1.8206033775E+00  3.0716060414E+00
                       4.0179532530E+00  5.1989539343E+00  9.2738024790E+00
                       5.7099488672E+00  1.3539391001E+00  5.5391465474E+00
                       3.4001925567E+00  4.7828190151E+00  5.5391465474E+00
                       6.3277095635E+00  1.7700740193E+00  9.2738024790E+00
                       7.0251796183E+00  4.7322896569E+00  1.1741342985E+01
            xcart      1.3322413662E+01  8.9742218424E+00  1.3252981541E+01
                       5.0606571925E+00  3.4089513707E+00  1.4739435339E+01
                       0.0000000000E+00  0.0000000000E+00  7.9555058367E+00
                       9.1915354273E+00  6.1915866065E+00  6.0407026034E+00
                       5.1074053417E+00  3.4404417801E+00  5.8044942064E+00
                       7.5928312628E+00  9.8245991133E+00  1.7524946896E+01
                       1.0790239592E+01  2.5585740998E+00  1.0467469984E+01
                       6.4254327313E+00  9.0382180816E+00  1.0467469984E+01
                       1.1957638123E+01  3.3449551315E+00  1.7524946896E+01
                       1.3275665513E+01  8.9427314330E+00  2.2187922674E+01
             xred      7.2471100000E-01  7.2471100000E-01  2.8266300000E-01
                       2.7528900000E-01  2.7528900000E-01  7.1733700000E-01
                       0.0000000000E+00  0.0000000000E+00  5.0000000000E-01
                       5.0000000000E-01  5.0000000000E-01  0.0000000000E+00
                       2.7783200000E-01  2.7783200000E-01  1.5384900000E-01
                       2.7012100000E-01  7.9338300000E-01  6.9767000000E-01
                       7.2987900000E-01  2.0661700000E-01  3.0233000000E-01
                       2.0661700000E-01  7.2987900000E-01  3.0233000000E-01
                       7.9338300000E-01  2.7012100000E-01  6.9767000000E-01
                       7.2216800000E-01  7.2216800000E-01  8.4615100000E-01
            znucl       37.00000   79.00000   53.00000
 
================================================================================


- Timing analysis has been suppressed with timopt=0



================================================================================

 Suggested references for the acknowledgment of ABINIT usage.

 The users of ABINIT have little formal obligations with respect to the ABINIT group
 (those specified in the GNU General Public License, http://www.gnu.org/copyleft/gpl.txt).
 However, it is common practice in the scientific literature,
 to acknowledge the efforts of people that have made the research possible.
 In this spirit, please find below suggested citations of work written by ABINIT developers,
 corresponding to implementations inside of ABINIT that you have used in the present run.
 Note also that it will be of great value to readers of publications presenting these results,
 to read papers enabling them to understand the theoretical formalism and details
 of the ABINIT implementation.
 For information on why they are suggested, see also https://docs.abinit.org/theory/acknowledgments.
-
- [1] Precise effective masses from density functional perturbation theory
- J. Laflamme Janssen, Y. Gillet, S. Ponce, A. Martin, M. Torrent, and X. Gonze. Phys. Rev. B 93, 205147 (2016)
- Comment: in case the DFPT prediction of effective masses is used.
- Strong suggestion to cite this paper in your publications.
- DOI and bibtex: see https://docs.abinit.org/theory/bibliography/#laflamme2016
-
- [2] Libxc: A library of exchange and correlation functionals for density functional theory.
- M.A.L. Marques, M.J.T. Oliveira, T. Burnus, Computer Physics Communications 183, 2227 (2012).
- Comment: to be cited when LibXC is used (negative value of ixc)
- Strong suggestion to cite this paper.
- DOI and bibtex: see https://docs.abinit.org/theory/bibliography/#marques2012
-
- [3] The Abinit project: Impact, environment and recent developments.
- Computer Phys. Comm. 248, 107042 (2020).
- X.Gonze, B. Amadon, G. Antonius, F.Arnardi, L.Baguet, J.-M.Beuken,
- J.Bieder, F.Bottin, J.Bouchet, E.Bousquet, N.Brouwer, F.Bruneval,
- G.Brunin, T.Cavignac, J.-B. Charraud, Wei Chen, M.Cote, S.Cottenier,
- J.Denier, G.Geneste, Ph.Ghosez, M.Giantomassi, Y.Gillet, O.Gingras,
- D.R.Hamann, G.Hautier, Xu He, N.Helbig, N.Holzwarth, Y.Jia, F.Jollet,
- W.Lafargue-Dit-Hauret, K.Lejaeghere, M.A.L.Marques, A.Martin, C.Martins,
- H.P.C. Miranda, F.Naccarato, K. Persson, G.Petretto, V.Planes, Y.Pouillon,
- S.Prokhorenko, F.Ricci, G.-M.Rignanese, A.H.Romero, M.M.Schmitt, M.Torrent,
- M.J.van Setten, B.Van Troeye, M.J.Verstraete, G.Zerah and J.W.Zwanzig
- Comment: the fifth generic paper describing the ABINIT project.
- Note that a version of this paper, that is not formatted for Computer Phys. Comm. 
- is available at https://www.abinit.org/sites/default/files/ABINIT20.pdf .
- The licence allows the authors to put it on the Web.
- DOI and bibtex: see https://docs.abinit.org/theory/bibliography/#gonze2020
-
- [4] First-principles responses of solids to atomic displacements and homogeneous electric fields:,
- implementation of a conjugate-gradient algorithm. X. Gonze, Phys. Rev. B55, 10337 (1997).
- Comment: Non-vanishing rfphon and/or rfelfd, in the norm-conserving case.
- DOI and bibtex: see https://docs.abinit.org/theory/bibliography/#gonze1997
-
- [5] Dynamical matrices, Born effective charges, dielectric permittivity tensors, and ,
- interatomic force constants from density-functional perturbation theory,
- X. Gonze and C. Lee, Phys. Rev. B55, 10355 (1997).
- Comment: Non-vanishing rfphon and/or rfelfd, in the norm-conserving case.
- DOI and bibtex: see https://docs.abinit.org/theory/bibliography/#gonze1997a
-
- [6] Optimized norm-conserving Vanderbilt pseudopotentials.
- D.R. Hamann, Phys. Rev. B 88, 085117 (2013).
- Comment: Some pseudopotential generated using the ONCVPSP code were used.
- DOI and bibtex: see https://docs.abinit.org/theory/bibliography/#hamann2013
-
- [7] ABINIT: Overview, and focus on selected capabilities
- J. Chem. Phys. 152, 124102 (2020).
- A. Romero, D.C. Allan, B. Amadon, G. Antonius, T. Applencourt, L.Baguet,
- J.Bieder, F.Bottin, J.Bouchet, E.Bousquet, F.Bruneval,
- G.Brunin, D.Caliste, M.Cote,
- J.Denier, C. Dreyer, Ph.Ghosez, M.Giantomassi, Y.Gillet, O.Gingras,
- D.R.Hamann, G.Hautier, F.Jollet, G. Jomard,
- A.Martin, 
- H.P.C. Miranda, F.Naccarato, G.Petretto, N.A. Pike, V.Planes,
- S.Prokhorenko, T. Rangel, F.Ricci, G.-M.Rignanese, M.Royo, M.Stengel, M.Torrent,
- M.J.van Setten, B.Van Troeye, M.J.Verstraete, J.Wiktor, J.W.Zwanziger, and X.Gonze.
- Comment: a global overview of ABINIT, with focus on selected capabilities .
- Note that a version of this paper, that is not formatted for J. Chem. Phys 
- is available at https://www.abinit.org/sites/default/files/ABINIT20_JPC.pdf .
- The licence allows the authors to put it on the Web.
- DOI and bibtex: see https://docs.abinit.org/theory/bibliography/#romero2020
-
- [8] Recent developments in the ABINIT software package.
- Computer Phys. Comm. 205, 106 (2016).
- X.Gonze, F.Jollet, F.Abreu Araujo, D.Adams, B.Amadon, T.Applencourt,
- C.Audouze, J.-M.Beuken, J.Bieder, A.Bokhanchuk, E.Bousquet, F.Bruneval
- D.Caliste, M.Cote, F.Dahm, F.Da Pieve, M.Delaveau, M.Di Gennaro,
- B.Dorado, C.Espejo, G.Geneste, L.Genovese, A.Gerossier, M.Giantomassi,
- Y.Gillet, D.R.Hamann, L.He, G.Jomard, J.Laflamme Janssen, S.Le Roux,
- A.Levitt, A.Lherbier, F.Liu, I.Lukacevic, A.Martin, C.Martins,
- M.J.T.Oliveira, S.Ponce, Y.Pouillon, T.Rangel, G.-M.Rignanese,
- A.H.Romero, B.Rousseau, O.Rubel, A.A.Shukri, M.Stankovski, M.Torrent,
- M.J.Van Setten, B.Van Troeye, M.J.Verstraete, D.Waroquier, J.Wiktor,
- B.Xu, A.Zhou, J.W.Zwanziger.
- Comment: the fourth generic paper describing the ABINIT project.
- Note that a version of this paper, that is not formatted for Computer Phys. Comm. 
- is available at https://www.abinit.org/sites/default/files/ABINIT16.pdf .
- The licence allows the authors to put it on the Web.
- DOI and bibtex: see https://docs.abinit.org/theory/bibliography/#gonze2016
-
- Proc.   0 individual time (sec): cpu=        985.7  wall=        995.7
 
================================================================================
 
 Calculation completed.
.Delivered   3 WARNINGs and   7 COMMENTs to log file.
+Overall time at end (sec) : cpu=        985.7  wall=        995.7
