
.Version 9.5.1 of ABINIT 
.(MPI version, prepared for a x86_64_linux_intel19.1 computer) 

.Copyright (C) 1998-2021 ABINIT group . 
 ABINIT comes with ABSOLUTELY NO WARRANTY.
 It is free software, and you are welcome to redistribute it
 under certain conditions (GNU General Public License,
 see ~abinit/COPYING or http://www.gnu.org/copyleft/gpl.txt).

 ABINIT is a project of the Universite Catholique de Louvain,
 Corning Inc. and other collaborators, see ~abinit/doc/developers/contributors.txt .
 Please read https://docs.abinit.org/theory/acknowledgments for suggested
 acknowledgments of the ABINIT effort.
 For more information, see https://www.abinit.org .

.Starting date : Wed 19 May 2021.
- ( at 12h08 )
  
- input  file    -> /scratch/users/j/a/jabreu/flow_simple_9atoms/flow/w155/t1/run.abi
- output file    -> /scratch/users/j/a/jabreu/flow_simple_9atoms/flow/w155/t1/run.abo
- root for input  files -> /scratch/users/j/a/jabreu/flow_simple_9atoms/flow/w155/t1/indata/in
- root for output files -> /scratch/users/j/a/jabreu/flow_simple_9atoms/flow/w155/t1/outdata/out
 
 
 Symmetries : space group Fm -3 m (#225); Bravais cF (face-center cubic)
================================================================================
 Values of the parameters that define the memory need of the present run (RF).
     intxc =       0      iscf =       7    lmnmax =      32     lnmax =       8
     mgfft =      72  mpssoang =       4    mqgrid =    3001     natom =       9
  nloc_mem =       1    nspden =       1   nspinor =       1    nsppol =       1
      nsym =      48    n1xccc =    2501    ntypat =       3    occopt =       1
   xclevel =       2
-    mband =          48        mffmem =           1         mkmem =           2
-   mkqmem =           2        mk1mem =           2           mpw =       15804
      nfft =      373248          nkpt =           2
================================================================================
P This job should need less than                     410.387 Mbytes of memory.
  Rough estimation (10% accuracy) of disk space for files :
_ WF disk file :     23.152 Mbytes ; DEN or POT disk file :      2.850 Mbytes.
================================================================================
 
--------------------------------------------------------------------------------
------------- Echo of variables that govern the present computation ------------
--------------------------------------------------------------------------------
-
- outvars: echo of selected default values                                      
-   iomode0 =  0 , fftalg0 =512 , wfoptalg0 =  0
-
- outvars: echo of global parameters not present in the input file              
-  max_nthreads =    0
-
 -outvars: echo values of preprocessed input variables --------
            acell      1.0000000000E+00  1.0000000000E+00  1.0000000000E+00 Bohr
              amu      1.32905430E+02  1.06420000E+02  1.89984032E+01
             ecut      4.20000000E+01 Hartree
-          fftalg         512
           irdden           1
           irdwfk           1
           istwfk        1    1
              ixc     -116133
              kpt      0.00000000E+00  0.00000000E+00  0.00000000E+00
                       5.00000000E-01  0.00000000E+00  5.00000000E-01
           kptopt           0
P           mkmem           2
P          mkqmem           2
P          mk1mem           2
            natom           9
            nband          48
           nbdbuf           4
            ngfft          72      72      72
             nkpt           2
            nstep        2000
             nsym          48
           ntypat           3
              occ      2.000000  2.000000  2.000000  2.000000  2.000000  2.000000
                       2.000000  2.000000  2.000000  2.000000  2.000000  2.000000
                       2.000000  2.000000  2.000000  2.000000  2.000000  2.000000
                       2.000000  2.000000  2.000000  2.000000  2.000000  2.000000
                       2.000000  2.000000  2.000000  2.000000  2.000000  2.000000
                       2.000000  2.000000  2.000000  2.000000  2.000000  2.000000
                       2.000000  2.000000  2.000000  0.000000  0.000000  0.000000
                       0.000000  0.000000  0.000000  0.000000  0.000000  0.000000
        optdriver           1
            prtwf          -1
            rfdir           1       1       1
           rfelfd           2
            rprim      1.0373910193E+01  0.0000000000E+00  5.9893798423E+00
                       3.4579700642E+00  9.7806163263E+00  5.9893798423E+00
                       0.0000000000E+00  0.0000000000E+00  1.1978759685E+01
          spgroup         225
           symrel      1  0  0   0  1  0   0  0  1      -1  0  0   0 -1  0   0  0 -1
                       0 -1  1   0 -1  0   1 -1  0       0  1 -1   0  1  0  -1  1  0
                      -1  0  0  -1  0  1  -1  1  0       1  0  0   1  0 -1   1 -1  0
                       0  1 -1   1  0 -1   0  0 -1       0 -1  1  -1  0  1   0  0  1
                      -1  0  0  -1  1  0  -1  0  1       1  0  0   1 -1  0   1  0 -1
                       0 -1  1   1 -1  0   0 -1  0       0  1 -1  -1  1  0   0  1  0
                       1  0  0   0  0  1   0  1  0      -1  0  0   0  0 -1   0 -1  0
                       0  1 -1   0  0 -1   1  0 -1       0 -1  1   0  0  1  -1  0  1
                      -1  0  1  -1  1  0  -1  0  0       1  0 -1   1 -1  0   1  0  0
                       0 -1  0   1 -1  0   0 -1  1       0  1  0  -1  1  0   0  1 -1
                       1  0 -1   0  0 -1   0  1 -1      -1  0  1   0  0  1   0 -1  1
                       0  1  0   0  0  1   1  0  0       0 -1  0   0  0 -1  -1  0  0
                       1  0 -1   0  1 -1   0  0 -1      -1  0  1   0 -1  1   0  0  1
                       0 -1  0   0 -1  1   1 -1  0       0  1  0   0  1 -1  -1  1  0
                      -1  0  1  -1  0  0  -1  1  0       1  0 -1   1  0  0   1 -1  0
                       0  1  0   1  0  0   0  0  1       0 -1  0  -1  0  0   0  0 -1
                       0  0 -1   0  1 -1   1  0 -1       0  0  1   0 -1  1  -1  0  1
                       1 -1  0   0 -1  1   0 -1  0      -1  1  0   0  1 -1   0  1  0
                       0  0  1   1  0  0   0  1  0       0  0 -1  -1  0  0   0 -1  0
                      -1  1  0  -1  0  0  -1  0  1       1 -1  0   1  0  0   1  0 -1
                       0  0  1   0  1  0   1  0  0       0  0 -1   0 -1  0  -1  0  0
                       1 -1  0   0 -1  0   0 -1  1      -1  1  0   0  1  0   0  1 -1
                       0  0 -1   1  0 -1   0  1 -1       0  0  1  -1  0  1   0 -1  1
                      -1  1  0  -1  0  1  -1  0  0       1 -1  0   1  0 -1   1  0  0
           tolwfr      1.00000000E-20
            typat      1  1  2  3  3  3  3  3  3
           useylm           1
              wtk        0.50000    0.50000
           xangst      5.4896368379E+00  3.8817594344E+00  9.5083299184E+00
                       1.8298789460E+00  1.2939198115E+00  3.1694433061E+00
                       0.0000000000E+00  0.0000000000E+00  0.0000000000E+00
                       2.6134806875E+00  4.0674990355E+00  8.1510918892E+00
                       4.7060350964E+00  1.1081802104E+00  8.1510918892E+00
                       2.6134806875E+00  4.0674990355E+00  4.5266813353E+00
                       5.7523123009E+00  4.0674990355E+00  6.3388866123E+00
                       1.5672034830E+00  1.1081802104E+00  6.3388866123E+00
                       4.7060350964E+00  1.1081802104E+00  4.5266813353E+00
            xcart      1.0373910193E+01  7.3354622447E+00  1.7968139527E+01
                       3.4579700642E+00  2.4451540816E+00  5.9893798423E+00
                       0.0000000000E+00  0.0000000000E+00  0.0000000000E+00
                       4.9387627529E+00  7.6864592228E+00  1.5403331355E+01
                       8.8931175040E+00  2.0941571035E+00  1.5403331355E+01
                       4.9387627529E+00  7.6864592228E+00  8.5541880146E+00
                       1.0870294879E+01  7.6864592228E+00  1.1978759685E+01
                       2.9615853774E+00  2.0941571035E+00  1.1978759685E+01
                       8.8931175040E+00  2.0941571035E+00  8.5541880146E+00
             xred      7.5000000000E-01  7.5000000000E-01  7.5000000000E-01
                       2.5000000000E-01  2.5000000000E-01  2.5000000000E-01
                       0.0000000000E+00  0.0000000000E+00  0.0000000000E+00
                       2.1411300000E-01  7.8588700000E-01  7.8588700000E-01
                       7.8588700000E-01  2.1411300000E-01  7.8588700000E-01
                       2.1411300000E-01  7.8588700000E-01  2.1411300000E-01
                       7.8588700000E-01  7.8588700000E-01  2.1411300000E-01
                       2.1411300000E-01  2.1411300000E-01  7.8588700000E-01
                       7.8588700000E-01  2.1411300000E-01  2.1411300000E-01
            znucl       55.00000   46.00000    9.00000
 
================================================================================
 
 chkinp: Checking input parameters for consistency.
 
================================================================================
== DATASET  1 ==================================================================
-   mpi_nproc: 1, omp_nthreads: -1 (-1 if OMP is not activated)
 

--- !DatasetInfo
iteration_state: {dtset: 1, }
dimensions: {natom: 9, nkpt: 2, mband: 48, nsppol: 1, nspinor: 1, nspden: 1, mpw: 15804, }
cutoff_energies: {ecut:  42.0, pawecutdg:  -1.0, }
electrons: {nelect:   7.80000000E+01, charge:   0.00000000E+00, occopt:   1.00000000E+00, tsmear:   1.00000000E-02, }
meta: {optdriver: 1, rfelfd: 2, }
...

 Real(R)+Recip(G) space primitive vectors, cartesian coordinates (Bohr,Bohr^-1):
 R(1)= 10.3739102  0.0000000  5.9893798  G(1)=  0.0963957 -0.0340810  0.0000000
 R(2)=  3.4579701  9.7806163  5.9893798  G(2)=  0.0000000  0.1022430  0.0000000
 R(3)=  0.0000000  0.0000000 11.9787597  G(3)= -0.0481978 -0.0340810  0.0834811
 Unit cell volume ucvol=  1.2154037E+03 bohr^3
 Angles (23,13,12)=  6.00000000E+01  6.00000000E+01  6.00000000E+01 degrees
 
 getcut: wavevector=  0.0000  0.0000  0.0000  ngfft=  72  72  72
         ecut(hartree)=     42.000   => boxcut(ratio)=   2.06030
 
--- Pseudopotential description ------------------------------------------------
- pspini: atom type   1  psp file is /scratch/users/j/a/jabreu/pseudos/PBEsol/Cs.psp8
- pspatm: opening atomic psp file    /scratch/users/j/a/jabreu/pseudos/PBEsol/Cs.psp8
- Cs    ONCVPSP-3.3.0  r_core=   2.27353   1.85623   2.01788   1.90105
- 55.00000   9.00000    180112                znucl, zion, pspdat
    8 -116133    3    4       600   0.00000   pspcod,pspxc,lmax,lloc,mmax,r2well
    5.99000000000000    5.00000000000000    0.00000000000000   rchrg,fchrg,qchrg
     nproj     2     2     2     2
     extension_switch     1
  pspatm : epsatm=   22.12462445
         --- l  ekb(1:nproj) -->
             0    6.214110    0.767882
             1    6.311966    0.793598
             2    3.769790    0.913105
             3   -9.247129   -2.432478
 pspatm: atomic psp has been read  and splines computed
 
- pspini: atom type   2  psp file is /scratch/users/j/a/jabreu/pseudos/PBEsol/Pd.psp8
- pspatm: opening atomic psp file    /scratch/users/j/a/jabreu/pseudos/PBEsol/Pd.psp8
- Pd    ONCVPSP-3.3.0  r_core=   1.41052   1.46191   1.55175
- 46.00000  18.00000    180112                znucl, zion, pspdat
    8 -116133    2    4       600   0.00000   pspcod,pspxc,lmax,lloc,mmax,r2well
    5.99000000000000    7.00000000000000    0.00000000000000   rchrg,fchrg,qchrg
     nproj     2     2     2
     extension_switch     1
  pspatm : epsatm=   26.17262427
         --- l  ekb(1:nproj) -->
             0    7.952303   -2.096627
             1    3.304793   -0.572651
             2   -1.185452   -0.410427
 pspatm: atomic psp has been read  and splines computed
 
- pspini: atom type   3  psp file is /scratch/users/j/a/jabreu/pseudos/PBEsol/F.psp8
- pspatm: opening atomic psp file    /scratch/users/j/a/jabreu/pseudos/PBEsol/F.psp8
- F     ONCVPSP-3.3.0  r_core=   1.30942   1.45782   1.60379
-  9.00000   7.00000    180112                znucl, zion, pspdat
    8 -116133    2    4       600   0.00000   pspcod,pspxc,lmax,lloc,mmax,r2well
    5.99000000000000    2.50000000000000    0.00000000000000   rchrg,fchrg,qchrg
     nproj     2     2     1
     extension_switch     1
  pspatm : epsatm=    4.89824824
         --- l  ekb(1:nproj) -->
             0    6.506434    1.065875
             1   -3.978753   -1.295852
             2   -2.394754
 pspatm: atomic psp has been read  and splines computed
 
   7.78528628E+03                                ecore*ucvol(ha*bohr**3)
--------------------------------------------------------------------------------
 
-inwffil : will read wavefunctions from disk file /scratch/users/j/a/jabreu/flow_simple_9atoms/flow/w155/t1/indata/in_WFK
 
 ==>  initialize data related to q vector <== 
 
 The list of irreducible perturbations for this q vector is:
    1)    idir= 1    ipert=  10
    2)    idir= 2    ipert=  10
    3)    idir= 3    ipert=  10
 
================================================================================
 
--------------------------------------------------------------------------------
 Perturbation wavevector (in red.coord.)   0.000000  0.000000  0.000000
 Perturbation : derivative vs k along direction   1
 
 dfpt_looppert : COMMENT -
  In a d/dk calculation, iscf is set to -3 automatically.
 The set of symmetries contains only one element for this perturbation.
 symkpt : not enough symmetry to change the number of k points.
 
--------------------------------------------------------------------------------
 
-inwffil : will read wavefunctions from disk file /scratch/users/j/a/jabreu/flow_simple_9atoms/flow/w155/t1/indata/in_WFK
--------------------------------------------------------------------------------
 
 Initialisation of the first-order wave-functions :
  ireadwf=   0

--- !BeginCycle
iteration_state: {dtset: 1, }
solver: {iscf: 7, nstep: 2000, nline: 4, wfoptalg: 0, }
tolerances: {tolwfr: 1.00E-20, }
...
 
     iter   2DEtotal(Ha)        deltaE(Ha) residm    vres2
-ETOT  1  -34.862774132977     -3.486E+01 1.904E-02 0.000E+00
 ETOT  2  -34.889635046738     -2.686E-02 3.634E-04 0.000E+00
 ETOT  3  -34.889868513694     -2.335E-04 2.202E-05 0.000E+00
 ETOT  4  -34.889875038977     -6.525E-06 1.236E-06 0.000E+00
 ETOT  5  -34.889875264490     -2.255E-07 6.901E-08 0.000E+00
 ETOT  6  -34.889875273414     -8.924E-09 1.200E-08 0.000E+00
 ETOT  7  -34.889875273795     -3.801E-10 1.125E-09 0.000E+00
 ETOT  8  -34.889875273812     -1.720E-11 1.803E-10 0.000E+00
 ETOT  9  -34.889875273813     -8.242E-13 1.801E-11 0.000E+00
 ETOT 10  -34.889875273813     -5.684E-14 2.842E-12 0.000E+00
 ETOT 11  -34.889875273813      1.421E-14 2.970E-13 0.000E+00
 ETOT 12  -34.889875273813     -1.421E-14 4.615E-14 0.000E+00
 ETOT 13  -34.889875273813      2.132E-14 5.036E-15 0.000E+00
 ETOT 14  -34.889875273813     -2.842E-14 7.692E-16 0.000E+00
 ETOT 15  -34.889875273813      0.000E+00 8.717E-17 0.000E+00
 ETOT 16  -34.889875273813      7.105E-15 1.314E-17 0.000E+00
 ETOT 17  -34.889875273813      0.000E+00 1.531E-18 0.000E+00
 ETOT 18  -34.889875273813      0.000E+00 2.287E-19 0.000E+00
 ETOT 19  -34.889875273813      0.000E+00 2.722E-20 0.000E+00
 ETOT 20  -34.889875273813      0.000E+00 9.939E-21 0.000E+00
 
 At SCF step   20   max residual=  9.94E-21 < tolwfr=  1.00E-20 =>converged.
================================================================================
 
 ----iterations are completed or convergence reached----
 
 dfpt_looppert: DFPT cycle converged with prtwf=-1. Will skip output of the 1st-order WFK file.
 dfpt_looppert : ek2=    6.4380135970E+01
          f-sum rule ratio=    1.0172227421E+00
 prteigrs : about to open file /scratch/users/j/a/jabreu/flow_simple_9atoms/flow/w155/t1/tmpdata/tmp_1WF1_EIG
 Expectation of eigenvalue derivatives (hartree) for nkpt=   2  k points:
  (in case of degenerate eigenvalues, averaged derivative)
 kpt#   1, nband= 48, wtk=  0.50000, kpt=  0.0000  0.0000  0.0000 (reduced coord)
   0.00000    0.00000    0.00000    0.00000    0.00000   -0.00000   -0.00000   -0.00000
  -0.00000   -0.00000   -0.00000   -0.00000   -0.00000   -0.00000   -0.00000    0.00000
   0.00000   -0.00000   -0.00000   -0.00000   -0.00000   -0.00000   -0.00000   -0.00000
   0.00000    0.00000    0.00000   -0.00000   -0.00000   -0.00000   -0.00000   -0.00000
  -0.00000    0.00000    0.00000    0.00000    0.00000    0.00000    0.00000    0.00000
   0.00000    0.00000   -0.00000   -0.00000   -0.00000   -0.00000   -0.00000    0.00000
 prteigrs : prtvol=0 or 1, do not print more k-points.
 
 
 Eight components of 2nd-order total energy (hartree) are
 1,2,3: 0th-order hamiltonian combined with 1st-order wavefunctions
     kin0=   4.62989567E+01 eigvalue=   2.57867368E+00  local=  -2.25111761E+01
 4,5,6: 1st-order hamiltonian combined with 1st and 0th-order wfs
     kin1=  -6.54889384E+01  Hartree=   0.00000000E+00     xc=   0.00000000E+00
 7,8,9: eventually, occupation + non-local contributions
    edocc=   6.33724105E+00     enl0=   2.18617996E+00   enl1=  -4.29081210E+00
 1-9 gives the relaxation energy (to be shifted if some occ is /=2.0)
   erelax=  -3.48898753E+01
  No Ewald or frozen-wf contrib.: the relaxation energy is the total one
 2DEtotal=   -0.3488987527E+02 Ha. Also 2DEtotal=   -0.949401788903E+03 eV
    (  non-var. 2DEtotal :   -3.4889875274E+01 Ha)
 
--------------------------------------------------------------------------------
 Perturbation wavevector (in red.coord.)   0.000000  0.000000  0.000000
 Perturbation : derivative vs k along direction   2
 The set of symmetries contains only one element for this perturbation.
 symkpt : not enough symmetry to change the number of k points.
 
--------------------------------------------------------------------------------
 
-inwffil : will read wavefunctions from disk file /scratch/users/j/a/jabreu/flow_simple_9atoms/flow/w155/t1/indata/in_WFK
--------------------------------------------------------------------------------
 
 Initialisation of the first-order wave-functions :
  ireadwf=   0

--- !BeginCycle
iteration_state: {dtset: 1, }
solver: {iscf: 7, nstep: 2000, nline: 4, wfoptalg: 0, }
tolerances: {tolwfr: 1.00E-20, }
...
 
     iter   2DEtotal(Ha)        deltaE(Ha) residm    vres2
-ETOT  1  -34.862542251555     -3.486E+01 1.597E-02 0.000E+00
 ETOT  2  -34.889617856446     -2.708E-02 3.634E-04 0.000E+00
 ETOT  3  -34.889856110416     -2.383E-04 2.202E-05 0.000E+00
 ETOT  4  -34.889862773414     -6.663E-06 1.237E-06 0.000E+00
 ETOT  5  -34.889863001272     -2.279E-07 6.430E-08 0.000E+00
 ETOT  6  -34.889863010222     -8.950E-09 1.067E-08 0.000E+00
 ETOT  7  -34.889863010600     -3.784E-10 9.134E-10 0.000E+00
 ETOT  8  -34.889863010617     -1.695E-11 1.538E-10 0.000E+00
 ETOT  9  -34.889863010618     -8.242E-13 1.443E-11 0.000E+00
 ETOT 10  -34.889863010618     -1.137E-13 2.079E-12 0.000E+00
 ETOT 11  -34.889863010618      8.527E-14 2.322E-13 0.000E+00
 ETOT 12  -34.889863010618     -2.842E-14 2.837E-14 0.000E+00
 ETOT 13  -34.889863010618      7.105E-15 3.752E-15 0.000E+00
 ETOT 14  -34.889863010618      7.105E-15 3.923E-16 0.000E+00
 ETOT 15  -34.889863010618      7.105E-15 6.076E-17 0.000E+00
 ETOT 16  -34.889863010618      0.000E+00 5.506E-18 0.000E+00
 ETOT 17  -34.889863010618      0.000E+00 9.856E-19 0.000E+00
 ETOT 18  -34.889863010618      0.000E+00 7.843E-20 0.000E+00
 ETOT 19  -34.889863010618      0.000E+00 1.602E-20 0.000E+00
 ETOT 20  -34.889863010618      0.000E+00 9.935E-21 0.000E+00
 
 At SCF step   20   max residual=  9.94E-21 < tolwfr=  1.00E-20 =>converged.
================================================================================
 
 ----iterations are completed or convergence reached----
 
 dfpt_looppert: DFPT cycle converged with prtwf=-1. Will skip output of the 1st-order WFK file.
 dfpt_looppert : ek2=    6.4380135969E+01
          f-sum rule ratio=    1.0172224599E+00
 prteigrs : about to open file /scratch/users/j/a/jabreu/flow_simple_9atoms/flow/w155/t1/tmpdata/tmp_1WF1_EIG
 Expectation of eigenvalue derivatives (hartree) for nkpt=   2  k points:
  (in case of degenerate eigenvalues, averaged derivative)
 kpt#   1, nband= 48, wtk=  0.50000, kpt=  0.0000  0.0000  0.0000 (reduced coord)
  -0.00000    0.00000    0.00000    0.00000    0.00000    0.00000    0.00000    0.00000
   0.00000    0.00000    0.00000    0.00000   -0.00000   -0.00000   -0.00000   -0.00000
  -0.00000   -0.00000   -0.00000   -0.00000   -0.00000    0.00000    0.00000    0.00000
   0.00000    0.00000    0.00000    0.00000    0.00000    0.00000    0.00000    0.00000
   0.00000   -0.00000   -0.00000   -0.00000   -0.00000   -0.00000   -0.00000   -0.00000
  -0.00000    0.00000    0.00000    0.00000    0.00000    0.00000    0.00000   -0.00000
 prteigrs : prtvol=0 or 1, do not print more k-points.
 
 
 Eight components of 2nd-order total energy (hartree) are
 1,2,3: 0th-order hamiltonian combined with 1st-order wavefunctions
     kin0=   4.62883480E+01 eigvalue=   2.57698486E+00  local=  -2.25028781E+01
 4,5,6: 1st-order hamiltonian combined with 1st and 0th-order wfs
     kin1=  -6.54889203E+01  Hartree=   0.00000000E+00     xc=   0.00000000E+00
 7,8,9: eventually, occupation + non-local contributions
    edocc=   6.34371302E+00     enl0=   2.18369519E+00   enl1=  -4.29080574E+00
 1-9 gives the relaxation energy (to be shifted if some occ is /=2.0)
   erelax=  -3.48898630E+01
  No Ewald or frozen-wf contrib.: the relaxation energy is the total one
 2DEtotal=   -0.3488986301E+02 Ha. Also 2DEtotal=   -0.949401455205E+03 eV
    (  non-var. 2DEtotal :   -3.4889863011E+01 Ha)
 
--------------------------------------------------------------------------------
 Perturbation wavevector (in red.coord.)   0.000000  0.000000  0.000000
 Perturbation : derivative vs k along direction   3
 The set of symmetries contains only one element for this perturbation.
 symkpt : not enough symmetry to change the number of k points.
 
--------------------------------------------------------------------------------
 
-inwffil : will read wavefunctions from disk file /scratch/users/j/a/jabreu/flow_simple_9atoms/flow/w155/t1/indata/in_WFK
--------------------------------------------------------------------------------
 
 Initialisation of the first-order wave-functions :
  ireadwf=   0

--- !BeginCycle
iteration_state: {dtset: 1, }
solver: {iscf: 7, nstep: 2000, nline: 4, wfoptalg: 0, }
tolerances: {tolwfr: 1.00E-20, }
...
 
     iter   2DEtotal(Ha)        deltaE(Ha) residm    vres2
-ETOT  1  -34.863067402960     -3.486E+01 1.942E-02 0.000E+00
 ETOT  2  -34.889626048863     -2.656E-02 3.634E-04 0.000E+00
 ETOT  3  -34.889857629874     -2.316E-04 2.202E-05 0.000E+00
 ETOT  4  -34.889864156712     -6.527E-06 1.236E-06 0.000E+00
 ETOT  5  -34.889864385406     -2.287E-07 6.817E-08 0.000E+00
 ETOT  6  -34.889864394621     -9.216E-09 1.215E-08 0.000E+00
 ETOT  7  -34.889864395021     -4.000E-10 1.106E-09 0.000E+00
 ETOT  8  -34.889864395040     -1.851E-11 1.814E-10 0.000E+00
 ETOT  9  -34.889864395041     -9.237E-13 1.778E-11 0.000E+00
 ETOT 10  -34.889864395041     -2.842E-14 2.849E-12 0.000E+00
 ETOT 11  -34.889864395041      0.000E+00 2.947E-13 0.000E+00
 ETOT 12  -34.889864395041     -7.105E-15 4.619E-14 0.000E+00
 ETOT 13  -34.889864395041     -1.421E-14 5.025E-15 0.000E+00
 ETOT 14  -34.889864395041      1.421E-14 7.712E-16 0.000E+00
 ETOT 15  -34.889864395041     -1.421E-14 8.750E-17 0.000E+00
 ETOT 16  -34.889864395041      0.000E+00 1.322E-17 0.000E+00
 ETOT 17  -34.889864395041      0.000E+00 1.547E-18 0.000E+00
 ETOT 18  -34.889864395041      0.000E+00 2.314E-19 0.000E+00
 ETOT 19  -34.889864395041      0.000E+00 2.767E-20 0.000E+00
 ETOT 20  -34.889864395041      0.000E+00 9.997E-21 0.000E+00
 
 At SCF step   20   max residual=  1.00E-20 < tolwfr=  1.00E-20 =>converged.
================================================================================
 
 ----iterations are completed or convergence reached----
 
 dfpt_looppert: DFPT cycle converged with prtwf=-1. Will skip output of the 1st-order WFK file.
 dfpt_looppert : ek2=    6.4380135970E+01
          f-sum rule ratio=    1.0172224825E+00
 prteigrs : about to open file /scratch/users/j/a/jabreu/flow_simple_9atoms/flow/w155/t1/tmpdata/tmp_1WF1_EIG
 Expectation of eigenvalue derivatives (hartree) for nkpt=   2  k points:
  (in case of degenerate eigenvalues, averaged derivative)
 kpt#   1, nband= 48, wtk=  0.50000, kpt=  0.0000  0.0000  0.0000 (reduced coord)
  -0.00000    0.00000    0.00000    0.00000   -0.00000    0.00000    0.00000   -0.00000
  -0.00000   -0.00000   -0.00000   -0.00000    0.00000    0.00000    0.00000    0.00000
   0.00000   -0.00000   -0.00000   -0.00000    0.00000    0.00000    0.00000    0.00000
  -0.00000   -0.00000   -0.00000    0.00000    0.00000    0.00000   -0.00000   -0.00000
  -0.00000    0.00000    0.00000    0.00000    0.00000    0.00000    0.00000   -0.00000
  -0.00000    0.00000    0.00000    0.00000   -0.00000   -0.00000   -0.00000    0.00000
 prteigrs : prtvol=0 or 1, do not print more k-points.
 
 
 Eight components of 2nd-order total energy (hartree) are
 1,2,3: 0th-order hamiltonian combined with 1st-order wavefunctions
     kin0=   4.60953431E+01 eigvalue=   2.54627819E+00  local=  -2.23517709E+01
 4,5,6: 1st-order hamiltonian combined with 1st and 0th-order wfs
     kin1=  -6.54889217E+01  Hartree=   0.00000000E+00     xc=   0.00000000E+00
 7,8,9: eventually, occupation + non-local contributions
    edocc=   6.46164575E+00     enl0=   2.13836834E+00   enl1=  -4.29080706E+00
 1-9 gives the relaxation energy (to be shifted if some occ is /=2.0)
   erelax=  -3.48898644E+01
  No Ewald or frozen-wf contrib.: the relaxation energy is the total one
 2DEtotal=   -0.3488986440E+02 Ha. Also 2DEtotal=   -0.949401492877E+03 eV
    (  non-var. 2DEtotal :   -3.4889864395E+01 Ha)
 
 CALCULATION OF EFFECTIVE MASSES
 NOTE : Additional infos (eff. mass eigenvalues, eigenvectors and, if degenerate, average mass) are available in stdout.

 COMMENTS: 
 - At k-point ( 0.000, 0.000, 0.000), bands    37 through    39
   are DEGENERATE (effective mass tensor is therefore not defined).
   See Section IIIB Eqs. (67)-(70) and Appendix E of PRB 93 205147 (2016).
 - Angular average effective mass for Frohlich model is to be averaged over degenerate bands. See later.
 - Associated theta integrals calculated with ntheta=   1000 points.

 K-point ( 0.000, 0.000, 0.000) | band =    37
 Transport equivalent effective mass tensor:
             -3.1254198576              0.0000000011              0.0000000021
              0.0000000011             -3.1254198588              0.0000000013
              0.0000000021              0.0000000013             -3.1254198556
 Transport equivalent effective mass tensor eigenvalues:
             -3.1254198595             -3.1254198588             -3.1254198537
 Angular average effective mass 1/(<1/m>)=  -3.1253844318
 Angular average effective mass for Frohlich model (<m**0.5>)**2=  -3.1253869039
 Effective masses along directions: (cart. coord. / red. coord. -> eff. mass)
    1:   1.000000  0.000000  0.000000 /   0.948683  0.316228  0.000000 ->  -3.1272207676
    2:   0.000000  1.000000  0.000000 /   0.000000  1.000000  0.000000 ->  -3.1302994634
    3:   0.000000  0.000000  1.000000 /   0.408248  0.408248  0.816497 ->  -3.1272294864
    4:   0.577350  0.577350  0.577350 /   0.585539  0.688047  0.428644 ->  -3.1273293246
    5:   0.000000  0.707107  0.707107 /   0.289489  0.762222  0.578977 ->  -3.1233904420
    6:   0.707107  0.000000  0.707107 /   0.731423  0.422287  0.535439 ->  -3.1272251260
    7:   0.707107  0.707107  0.000000 /   0.616798  0.787122  0.000000 ->  -3.1190757893

 K-point ( 0.000, 0.000, 0.000) | band =    38
 Transport equivalent effective mass tensor:
            -10.0858397797             -0.0000000895             -0.0000000050
             -0.0000000895            -10.0858397275             -0.0000000020
             -0.0000000050             -0.0000000020            -10.0858394978
 Transport equivalent effective mass tensor eigenvalues:
            -10.0858398469            -10.0858396603            -10.0858394977
 Angular average effective mass 1/(<1/m>)= -10.0850080245
 Angular average effective mass for Frohlich model (<m**0.5>)**2= -10.0850551400
 Effective masses along directions: (cart. coord. / red. coord. -> eff. mass)
    1:   1.000000  0.000000  0.000000 /   0.948683  0.316228  0.000000 -> -10.0828376149
    2:   0.000000  1.000000  0.000000 /   0.000000  1.000000  0.000000 -> -10.0827469489
    3:   0.000000  0.000000  1.000000 /   0.408248  0.408248  0.816497 -> -10.0509653637
    4:   0.577350  0.577350  0.577350 /   0.585539  0.688047  0.428644 -> -10.0740109907
    5:   0.000000  0.707107  0.707107 /   0.289489  0.762222  0.578977 -> -10.0932085336
    6:   0.707107  0.000000  0.707107 /   0.731423  0.422287  0.535439 -> -10.0631138688
    7:   0.707107  0.707107  0.000000 /   0.616798  0.787122  0.000000 -> -10.1388927989

 K-point ( 0.000, 0.000, 0.000) | band =    39
 Transport equivalent effective mass tensor:
            -10.1322078644              0.0000000765             -0.0000000203
              0.0000000765            -10.1322079112             -0.0000000158
             -0.0000000203             -0.0000000158            -10.1322081778
 Transport equivalent effective mass tensor eigenvalues:
            -10.1322081795            -10.1322079678            -10.1322078060
 Angular average effective mass 1/(<1/m>)= -10.1317972444
 Angular average effective mass for Frohlich model (<m**0.5>)**2= -10.1318149351
 Effective masses along directions: (cart. coord. / red. coord. -> eff. mass)
    1:   1.000000  0.000000  0.000000 /   0.948683  0.316228  0.000000 -> -10.1147301719
    2:   0.000000  1.000000  0.000000 /   0.000000  1.000000  0.000000 -> -10.0827469562
    3:   0.000000  0.000000  1.000000 /   0.408248  0.408248  0.816497 -> -10.1469169820
    4:   0.577350  0.577350  0.577350 /   0.585539  0.688047  0.428644 -> -10.1224908471
    5:   0.000000  0.707107  0.707107 /   0.289489  0.762222  0.578977 -> -10.1445115784
    6:   0.707107  0.000000  0.707107 /   0.731423  0.422287  0.535439 -> -10.1346112098
    7:   0.707107  0.707107  0.000000 /   0.616798  0.787122  0.000000 -> -10.1441477295

 Angular average effective mass for Frohlich model, averaged over degenerate bands.
 Value of     (<<m**0.5>>)**2 =     7.338004E+00
 Absolute Value of <<m**0.5>> =     2.708875E+00


 K-point ( 0.500, 0.000, 0.500) | band =    40
 Effective mass tensor:
              3.3933089395              0.2143010823             -0.2624119044
              0.2143010823              3.2417696206              0.3711199589
             -0.2624119044              0.3711199589              3.0902434845
 Effective mass tensor eigenvalues:
              2.6357188455              3.5447621986              3.5448410005
 Angular average effective mass 1/(<1/m>)=   3.1792808944
 Angular average effective mass for Frohlich model (<m**0.5>)**2=   3.1988417585
 Effective masses along directions: (cart. coord. / red. coord. -> eff. mass)
    1:   1.000000  0.000000  0.000000 /   0.948683  0.316228  0.000000 ->   3.3521265206
    2:   0.000000  1.000000  0.000000 /   0.000000  1.000000  0.000000 ->   3.1792754657
    3:   0.000000  0.000000  1.000000 /   0.408248  0.408248  0.816497 ->   3.0233910125
    4:   0.577350  0.577350  0.577350 /   0.585539  0.688047  0.428644 ->   3.4306602817
    5:   0.000000  0.707107  0.707107 /   0.289489  0.762222  0.578977 ->   3.5345172035
    6:   0.707107  0.000000  0.707107 /   0.731423  0.422287  0.535439 ->   2.9186615193
    7:   0.707107  0.707107  0.000000 /   0.616798  0.787122  0.000000 ->   3.5274420998

 END OF EFFECTIVE MASSES SECTION

================================================================================
 
 ---- first-order wavefunction calculations are completed ----
 
 
 Total localisation tensor (bohr^2) in cartesian coordinates
  WARNING : still subject to testing - especially symmetries.
      direction              matrix element
   alpha     beta       real part   imaginary part
     1        1       0.7694159063    0.0000000000
     1        2       0.2176235664    0.0000000000
     1        3       0.5330669296    0.0000000000
     2        1       0.2176235664    0.0000000000
     2        2       0.6155323982    0.0000000000
     2        3       0.3769350740    0.0000000000
     3        1       0.5330669296    0.0000000000
     3        2       0.3769350740    0.0000000000
     3        3       1.3849480451    0.0000000000
 
 respfn : d/dk was computed, but no 2DTE, so no DDB output.
 
== END DATASET(S) ==============================================================
================================================================================
  
 -outvars: echo values of variables after computation  --------
            acell      1.0000000000E+00  1.0000000000E+00  1.0000000000E+00 Bohr
              amu      1.32905430E+02  1.06420000E+02  1.89984032E+01
             ecut      4.20000000E+01 Hartree
           etotal     -3.4889864395E+01
            fcart      0.0000000000E+00  0.0000000000E+00  0.0000000000E+00
                       0.0000000000E+00  0.0000000000E+00  0.0000000000E+00
                       0.0000000000E+00  0.0000000000E+00  0.0000000000E+00
                       0.0000000000E+00  0.0000000000E+00  0.0000000000E+00
                       0.0000000000E+00  0.0000000000E+00  0.0000000000E+00
                       0.0000000000E+00  0.0000000000E+00  0.0000000000E+00
                       0.0000000000E+00  0.0000000000E+00  0.0000000000E+00
                       0.0000000000E+00  0.0000000000E+00  0.0000000000E+00
                       0.0000000000E+00  0.0000000000E+00  0.0000000000E+00
-          fftalg         512
           irdden           1
           irdwfk           1
           istwfk        1    1
              ixc     -116133
              kpt      0.00000000E+00  0.00000000E+00  0.00000000E+00
                       5.00000000E-01  0.00000000E+00  5.00000000E-01
           kptopt           0
P           mkmem           2
P          mkqmem           2
P          mk1mem           2
            natom           9
            nband          48
           nbdbuf           4
            ngfft          72      72      72
             nkpt           2
            nstep        2000
             nsym          48
           ntypat           3
              occ      2.000000  2.000000  2.000000  2.000000  2.000000  2.000000
                       2.000000  2.000000  2.000000  2.000000  2.000000  2.000000
                       2.000000  2.000000  2.000000  2.000000  2.000000  2.000000
                       2.000000  2.000000  2.000000  2.000000  2.000000  2.000000
                       2.000000  2.000000  2.000000  2.000000  2.000000  2.000000
                       2.000000  2.000000  2.000000  2.000000  2.000000  2.000000
                       2.000000  2.000000  2.000000  0.000000  0.000000  0.000000
                       0.000000  0.000000  0.000000  0.000000  0.000000  0.000000
        optdriver           1
            prtwf          -1
            rfdir           1       1       1
           rfelfd           2
            rprim      1.0373910193E+01  0.0000000000E+00  5.9893798423E+00
                       3.4579700642E+00  9.7806163263E+00  5.9893798423E+00
                       0.0000000000E+00  0.0000000000E+00  1.1978759685E+01
          spgroup         225
           strten      0.0000000000E+00  0.0000000000E+00  0.0000000000E+00
                       0.0000000000E+00  0.0000000000E+00  0.0000000000E+00
           symrel      1  0  0   0  1  0   0  0  1      -1  0  0   0 -1  0   0  0 -1
                       0 -1  1   0 -1  0   1 -1  0       0  1 -1   0  1  0  -1  1  0
                      -1  0  0  -1  0  1  -1  1  0       1  0  0   1  0 -1   1 -1  0
                       0  1 -1   1  0 -1   0  0 -1       0 -1  1  -1  0  1   0  0  1
                      -1  0  0  -1  1  0  -1  0  1       1  0  0   1 -1  0   1  0 -1
                       0 -1  1   1 -1  0   0 -1  0       0  1 -1  -1  1  0   0  1  0
                       1  0  0   0  0  1   0  1  0      -1  0  0   0  0 -1   0 -1  0
                       0  1 -1   0  0 -1   1  0 -1       0 -1  1   0  0  1  -1  0  1
                      -1  0  1  -1  1  0  -1  0  0       1  0 -1   1 -1  0   1  0  0
                       0 -1  0   1 -1  0   0 -1  1       0  1  0  -1  1  0   0  1 -1
                       1  0 -1   0  0 -1   0  1 -1      -1  0  1   0  0  1   0 -1  1
                       0  1  0   0  0  1   1  0  0       0 -1  0   0  0 -1  -1  0  0
                       1  0 -1   0  1 -1   0  0 -1      -1  0  1   0 -1  1   0  0  1
                       0 -1  0   0 -1  1   1 -1  0       0  1  0   0  1 -1  -1  1  0
                      -1  0  1  -1  0  0  -1  1  0       1  0 -1   1  0  0   1 -1  0
                       0  1  0   1  0  0   0  0  1       0 -1  0  -1  0  0   0  0 -1
                       0  0 -1   0  1 -1   1  0 -1       0  0  1   0 -1  1  -1  0  1
                       1 -1  0   0 -1  1   0 -1  0      -1  1  0   0  1 -1   0  1  0
                       0  0  1   1  0  0   0  1  0       0  0 -1  -1  0  0   0 -1  0
                      -1  1  0  -1  0  0  -1  0  1       1 -1  0   1  0  0   1  0 -1
                       0  0  1   0  1  0   1  0  0       0  0 -1   0 -1  0  -1  0  0
                       1 -1  0   0 -1  0   0 -1  1      -1  1  0   0  1  0   0  1 -1
                       0  0 -1   1  0 -1   0  1 -1       0  0  1  -1  0  1   0 -1  1
                      -1  1  0  -1  0  1  -1  0  0       1 -1  0   1  0 -1   1  0  0
           tolwfr      1.00000000E-20
            typat      1  1  2  3  3  3  3  3  3
           useylm           1
              wtk        0.50000    0.50000
           xangst      5.4896368379E+00  3.8817594344E+00  9.5083299184E+00
                       1.8298789460E+00  1.2939198115E+00  3.1694433061E+00
                       0.0000000000E+00  0.0000000000E+00  0.0000000000E+00
                       2.6134806875E+00  4.0674990355E+00  8.1510918892E+00
                       4.7060350964E+00  1.1081802104E+00  8.1510918892E+00
                       2.6134806875E+00  4.0674990355E+00  4.5266813353E+00
                       5.7523123009E+00  4.0674990355E+00  6.3388866123E+00
                       1.5672034830E+00  1.1081802104E+00  6.3388866123E+00
                       4.7060350964E+00  1.1081802104E+00  4.5266813353E+00
            xcart      1.0373910193E+01  7.3354622447E+00  1.7968139527E+01
                       3.4579700642E+00  2.4451540816E+00  5.9893798423E+00
                       0.0000000000E+00  0.0000000000E+00  0.0000000000E+00
                       4.9387627529E+00  7.6864592228E+00  1.5403331355E+01
                       8.8931175040E+00  2.0941571035E+00  1.5403331355E+01
                       4.9387627529E+00  7.6864592228E+00  8.5541880146E+00
                       1.0870294879E+01  7.6864592228E+00  1.1978759685E+01
                       2.9615853774E+00  2.0941571035E+00  1.1978759685E+01
                       8.8931175040E+00  2.0941571035E+00  8.5541880146E+00
             xred      7.5000000000E-01  7.5000000000E-01  7.5000000000E-01
                       2.5000000000E-01  2.5000000000E-01  2.5000000000E-01
                       0.0000000000E+00  0.0000000000E+00  0.0000000000E+00
                       2.1411300000E-01  7.8588700000E-01  7.8588700000E-01
                       7.8588700000E-01  2.1411300000E-01  7.8588700000E-01
                       2.1411300000E-01  7.8588700000E-01  2.1411300000E-01
                       7.8588700000E-01  7.8588700000E-01  2.1411300000E-01
                       2.1411300000E-01  2.1411300000E-01  7.8588700000E-01
                       7.8588700000E-01  2.1411300000E-01  2.1411300000E-01
            znucl       55.00000   46.00000    9.00000
 
================================================================================


- Timing analysis has been suppressed with timopt=0



================================================================================

 Suggested references for the acknowledgment of ABINIT usage.

 The users of ABINIT have little formal obligations with respect to the ABINIT group
 (those specified in the GNU General Public License, http://www.gnu.org/copyleft/gpl.txt).
 However, it is common practice in the scientific literature,
 to acknowledge the efforts of people that have made the research possible.
 In this spirit, please find below suggested citations of work written by ABINIT developers,
 corresponding to implementations inside of ABINIT that you have used in the present run.
 Note also that it will be of great value to readers of publications presenting these results,
 to read papers enabling them to understand the theoretical formalism and details
 of the ABINIT implementation.
 For information on why they are suggested, see also https://docs.abinit.org/theory/acknowledgments.
-
- [1] Precise effective masses from density functional perturbation theory
- J. Laflamme Janssen, Y. Gillet, S. Ponce, A. Martin, M. Torrent, and X. Gonze. Phys. Rev. B 93, 205147 (2016)
- Comment: in case the DFPT prediction of effective masses is used.
- Strong suggestion to cite this paper in your publications.
- DOI and bibtex: see https://docs.abinit.org/theory/bibliography/#laflamme2016
-
- [2] Libxc: A library of exchange and correlation functionals for density functional theory.
- M.A.L. Marques, M.J.T. Oliveira, T. Burnus, Computer Physics Communications 183, 2227 (2012).
- Comment: to be cited when LibXC is used (negative value of ixc)
- Strong suggestion to cite this paper.
- DOI and bibtex: see https://docs.abinit.org/theory/bibliography/#marques2012
-
- [3] The Abinit project: Impact, environment and recent developments.
- Computer Phys. Comm. 248, 107042 (2020).
- X.Gonze, B. Amadon, G. Antonius, F.Arnardi, L.Baguet, J.-M.Beuken,
- J.Bieder, F.Bottin, J.Bouchet, E.Bousquet, N.Brouwer, F.Bruneval,
- G.Brunin, T.Cavignac, J.-B. Charraud, Wei Chen, M.Cote, S.Cottenier,
- J.Denier, G.Geneste, Ph.Ghosez, M.Giantomassi, Y.Gillet, O.Gingras,
- D.R.Hamann, G.Hautier, Xu He, N.Helbig, N.Holzwarth, Y.Jia, F.Jollet,
- W.Lafargue-Dit-Hauret, K.Lejaeghere, M.A.L.Marques, A.Martin, C.Martins,
- H.P.C. Miranda, F.Naccarato, K. Persson, G.Petretto, V.Planes, Y.Pouillon,
- S.Prokhorenko, F.Ricci, G.-M.Rignanese, A.H.Romero, M.M.Schmitt, M.Torrent,
- M.J.van Setten, B.Van Troeye, M.J.Verstraete, G.Zerah and J.W.Zwanzig
- Comment: the fifth generic paper describing the ABINIT project.
- Note that a version of this paper, that is not formatted for Computer Phys. Comm. 
- is available at https://www.abinit.org/sites/default/files/ABINIT20.pdf .
- The licence allows the authors to put it on the Web.
- DOI and bibtex: see https://docs.abinit.org/theory/bibliography/#gonze2020
-
- [4] First-principles responses of solids to atomic displacements and homogeneous electric fields:,
- implementation of a conjugate-gradient algorithm. X. Gonze, Phys. Rev. B55, 10337 (1997).
- Comment: Non-vanishing rfphon and/or rfelfd, in the norm-conserving case.
- DOI and bibtex: see https://docs.abinit.org/theory/bibliography/#gonze1997
-
- [5] Dynamical matrices, Born effective charges, dielectric permittivity tensors, and ,
- interatomic force constants from density-functional perturbation theory,
- X. Gonze and C. Lee, Phys. Rev. B55, 10355 (1997).
- Comment: Non-vanishing rfphon and/or rfelfd, in the norm-conserving case.
- DOI and bibtex: see https://docs.abinit.org/theory/bibliography/#gonze1997a
-
- [6] Optimized norm-conserving Vanderbilt pseudopotentials.
- D.R. Hamann, Phys. Rev. B 88, 085117 (2013).
- Comment: Some pseudopotential generated using the ONCVPSP code were used.
- DOI and bibtex: see https://docs.abinit.org/theory/bibliography/#hamann2013
-
- [7] ABINIT: Overview, and focus on selected capabilities
- J. Chem. Phys. 152, 124102 (2020).
- A. Romero, D.C. Allan, B. Amadon, G. Antonius, T. Applencourt, L.Baguet,
- J.Bieder, F.Bottin, J.Bouchet, E.Bousquet, F.Bruneval,
- G.Brunin, D.Caliste, M.Cote,
- J.Denier, C. Dreyer, Ph.Ghosez, M.Giantomassi, Y.Gillet, O.Gingras,
- D.R.Hamann, G.Hautier, F.Jollet, G. Jomard,
- A.Martin, 
- H.P.C. Miranda, F.Naccarato, G.Petretto, N.A. Pike, V.Planes,
- S.Prokhorenko, T. Rangel, F.Ricci, G.-M.Rignanese, M.Royo, M.Stengel, M.Torrent,
- M.J.van Setten, B.Van Troeye, M.J.Verstraete, J.Wiktor, J.W.Zwanziger, and X.Gonze.
- Comment: a global overview of ABINIT, with focus on selected capabilities .
- Note that a version of this paper, that is not formatted for J. Chem. Phys 
- is available at https://www.abinit.org/sites/default/files/ABINIT20_JPC.pdf .
- The licence allows the authors to put it on the Web.
- DOI and bibtex: see https://docs.abinit.org/theory/bibliography/#romero2020
-
- [8] Recent developments in the ABINIT software package.
- Computer Phys. Comm. 205, 106 (2016).
- X.Gonze, F.Jollet, F.Abreu Araujo, D.Adams, B.Amadon, T.Applencourt,
- C.Audouze, J.-M.Beuken, J.Bieder, A.Bokhanchuk, E.Bousquet, F.Bruneval
- D.Caliste, M.Cote, F.Dahm, F.Da Pieve, M.Delaveau, M.Di Gennaro,
- B.Dorado, C.Espejo, G.Geneste, L.Genovese, A.Gerossier, M.Giantomassi,
- Y.Gillet, D.R.Hamann, L.He, G.Jomard, J.Laflamme Janssen, S.Le Roux,
- A.Levitt, A.Lherbier, F.Liu, I.Lukacevic, A.Martin, C.Martins,
- M.J.T.Oliveira, S.Ponce, Y.Pouillon, T.Rangel, G.-M.Rignanese,
- A.H.Romero, B.Rousseau, O.Rubel, A.A.Shukri, M.Stankovski, M.Torrent,
- M.J.Van Setten, B.Van Troeye, M.J.Verstraete, D.Waroquier, J.Wiktor,
- B.Xu, A.Zhou, J.W.Zwanziger.
- Comment: the fourth generic paper describing the ABINIT project.
- Note that a version of this paper, that is not formatted for Computer Phys. Comm. 
- is available at https://www.abinit.org/sites/default/files/ABINIT16.pdf .
- The licence allows the authors to put it on the Web.
- DOI and bibtex: see https://docs.abinit.org/theory/bibliography/#gonze2016
-
- Proc.   0 individual time (sec): cpu=        328.0  wall=        337.3
 
================================================================================
 
 Calculation completed.
.Delivered  14 WARNINGs and   9 COMMENTs to log file.
+Overall time at end (sec) : cpu=        328.0  wall=        337.3
