
.Version 9.5.1 of ABINIT 
.(MPI version, prepared for a x86_64_linux_intel19.1 computer) 

.Copyright (C) 1998-2021 ABINIT group . 
 ABINIT comes with ABSOLUTELY NO WARRANTY.
 It is free software, and you are welcome to redistribute it
 under certain conditions (GNU General Public License,
 see ~abinit/COPYING or http://www.gnu.org/copyleft/gpl.txt).

 ABINIT is a project of the Universite Catholique de Louvain,
 Corning Inc. and other collaborators, see ~abinit/doc/developers/contributors.txt .
 Please read https://docs.abinit.org/theory/acknowledgments for suggested
 acknowledgments of the ABINIT effort.
 For more information, see https://www.abinit.org .

.Starting date : Tue  4 May 2021.
- ( at 19h32 )
  
- input  file    -> /scratch/users/j/a/jabreu/flow_simple_6atoms/flow/w217/t1/run.abi
- output file    -> /scratch/users/j/a/jabreu/flow_simple_6atoms/flow/w217/t1/run.abo
- root for input  files -> /scratch/users/j/a/jabreu/flow_simple_6atoms/flow/w217/t1/indata/in
- root for output files -> /scratch/users/j/a/jabreu/flow_simple_6atoms/flow/w217/t1/outdata/out
 
 
 Symmetries : space group P4/n m m (#129); Bravais tP (primitive tetrag.)
================================================================================
 Values of the parameters that define the memory need of the present run (RF).
     intxc =       0      iscf =       7    lmnmax =      18     lnmax =       6
     mgfft =      96  mpssoang =       3    mqgrid =    4525     natom =       6
  nloc_mem =       1    nspden =       1   nspinor =       1    nsppol =       1
      nsym =      16    n1xccc =    2501    ntypat =       3    occopt =       1
   xclevel =       2
-    mband =          43        mffmem =           1         mkmem =           2
-   mkqmem =           2        mk1mem =           2           mpw =       16453
      nfft =      279936          nkpt =           2
================================================================================
P This job should need less than                     225.113 Mbytes of memory.
  Rough estimation (10% accuracy) of disk space for files :
_ WF disk file :     21.593 Mbytes ; DEN or POT disk file :      2.138 Mbytes.
================================================================================
 
--------------------------------------------------------------------------------
------------- Echo of variables that govern the present computation ------------
--------------------------------------------------------------------------------
-
- outvars: echo of selected default values                                      
-   iomode0 =  0 , fftalg0 =512 , wfoptalg0 =  0
-
- outvars: echo of global parameters not present in the input file              
-  max_nthreads =    0
-
 -outvars: echo values of preprocessed input variables --------
            acell      1.0000000000E+00  1.0000000000E+00  1.0000000000E+00 Bohr
              amu      3.90983000E+01  2.43050000E+01  1.21753000E+02
             ecut      4.20000000E+01 Hartree
-          fftalg         512
           irdden           1
           irdwfk           1
           istwfk        1    1
              ixc     -116133
              kpt      0.00000000E+00 -3.08148791E-33  5.00000000E-01
                       0.00000000E+00  0.00000000E+00  0.00000000E+00
           kptopt           0
P           mkmem           2
P          mkqmem           2
P          mk1mem           2
            natom           6
            nband          43
           nbdbuf           4
            ngfft          54      54      96
             nkpt           2
            nstep        1000
             nsym          16
           ntypat           3
              occ      2.000000  2.000000  2.000000  2.000000  2.000000  2.000000
                       2.000000  2.000000  2.000000  2.000000  2.000000  2.000000
                       2.000000  2.000000  2.000000  2.000000  2.000000  2.000000
                       2.000000  2.000000  2.000000  2.000000  2.000000  2.000000
                       2.000000  2.000000  2.000000  2.000000  2.000000  2.000000
                       2.000000  2.000000  2.000000  2.000000  0.000000  0.000000
                       0.000000  0.000000  0.000000  0.000000  0.000000  0.000000
                       0.000000
        optdriver           1
            prtwf          -1
            rfdir           1       1       1
           rfelfd           2
            rprim      9.0274529620E+00  0.0000000000E+00  0.0000000000E+00
                       0.0000000000E+00  9.0274529620E+00  0.0000000000E+00
                       0.0000000000E+00  0.0000000000E+00  1.5509663967E+01
          spgroup         129
           symrel      1  0  0   0  1  0   0  0  1      -1  0  0   0 -1  0   0  0 -1
                      -1  0  0   0  1  0   0  0 -1       1  0  0   0 -1  0   0  0  1
                      -1  0  0   0 -1  0   0  0  1       1  0  0   0  1  0   0  0 -1
                       1  0  0   0 -1  0   0  0 -1      -1  0  0   0  1  0   0  0  1
                       0  1  0   1  0  0   0  0  1       0 -1  0  -1  0  0   0  0 -1
                       0 -1  0   1  0  0   0  0 -1       0  1  0  -1  0  0   0  0  1
                       0 -1  0  -1  0  0   0  0  1       0  1  0   1  0  0   0  0 -1
                       0  1  0  -1  0  0   0  0 -1       0 -1  0   1  0  0   0  0  1
            tnons      0.0000000  0.0000000  0.0000000     0.5000000  0.5000000  0.0000000
                       0.5000000  0.5000000  0.0000000     0.0000000  0.0000000  0.0000000
                       0.0000000  0.0000000  0.0000000     0.5000000  0.5000000  0.0000000
                       0.5000000  0.5000000  0.0000000     0.0000000  0.0000000  0.0000000
                       0.5000000  0.5000000  0.0000000     0.0000000  0.0000000  0.0000000
                       0.0000000  0.0000000  0.0000000     0.5000000  0.5000000  0.0000000
                       0.5000000  0.5000000  0.0000000     0.0000000  0.0000000  0.0000000
                       0.0000000  0.0000000  0.0000000     0.5000000  0.5000000  0.0000000
           tolwfr      1.00000000E-20
            typat      1  1  2  2  3  3
           useylm           1
              wtk        0.50000    0.50000
           xangst      0.0000000000E+00  2.3885611796E+00  5.3237947887E+00
                       2.3885611796E+00  0.0000000000E+00  2.8835658954E+00
                       2.3885611796E+00  2.3885611796E+00  0.0000000000E+00
                       0.0000000000E+00  0.0000000000E+00  0.0000000000E+00
                       0.0000000000E+00  2.3885611796E+00  1.6659218643E+00
                       2.3885611796E+00  0.0000000000E+00  6.5414388198E+00
            xcart      0.0000000000E+00  4.5137264810E+00  1.0060514138E+01
                       4.5137264810E+00  0.0000000000E+00  5.4491498284E+00
                       4.5137264810E+00  4.5137264810E+00  0.0000000000E+00
                       0.0000000000E+00  0.0000000000E+00  0.0000000000E+00
                       0.0000000000E+00  4.5137264810E+00  3.1481360823E+00
                       4.5137264810E+00  0.0000000000E+00  1.2361527884E+01
             xred      0.0000000000E+00  5.0000000000E-01  6.4866100000E-01
                       5.0000000000E-01  0.0000000000E+00  3.5133900000E-01
                       5.0000000000E-01  5.0000000000E-01  0.0000000000E+00
                       0.0000000000E+00  0.0000000000E+00  0.0000000000E+00
                       0.0000000000E+00  5.0000000000E-01  2.0297900000E-01
                       5.0000000000E-01  0.0000000000E+00  7.9702100000E-01
            znucl       19.00000   12.00000   51.00000
 
================================================================================
 
 chkinp: Checking input parameters for consistency.
 
================================================================================
== DATASET  1 ==================================================================
-   mpi_nproc: 1, omp_nthreads: -1 (-1 if OMP is not activated)
 

--- !DatasetInfo
iteration_state: {dtset: 1, }
dimensions: {natom: 6, nkpt: 2, mband: 43, nsppol: 1, nspinor: 1, nspden: 1, mpw: 16453, }
cutoff_energies: {ecut:  42.0, pawecutdg:  -1.0, }
electrons: {nelect:   6.80000000E+01, charge:   0.00000000E+00, occopt:   1.00000000E+00, tsmear:   1.00000000E-02, }
meta: {optdriver: 1, rfelfd: 2, }
...

 Real(R)+Recip(G) space primitive vectors, cartesian coordinates (Bohr,Bohr^-1):
 R(1)=  9.0274530  0.0000000  0.0000000  G(1)=  0.1107732  0.0000000  0.0000000
 R(2)=  0.0000000  9.0274530  0.0000000  G(2)=  0.0000000  0.1107732  0.0000000
 R(3)=  0.0000000  0.0000000 15.5096640  G(3)=  0.0000000  0.0000000  0.0644759
 Unit cell volume ucvol=  1.2639586E+03 bohr^3
 Angles (23,13,12)=  9.00000000E+01  9.00000000E+01  9.00000000E+01 degrees
 
 getcut: wavevector=  0.0000  0.0000  0.0000  ngfft=  54  54  96
         ecut(hartree)=     42.000   => boxcut(ratio)=   2.05040
 
--- Pseudopotential description ------------------------------------------------
- pspini: atom type   1  psp file is /scratch/users/j/a/jabreu/pseudos/PBEsol/K.psp8
- pspatm: opening atomic psp file    /scratch/users/j/a/jabreu/pseudos/PBEsol/K.psp8
- K     ONCVPSP-3.3.0  r_core=   1.36296   1.46408   1.61068
- 19.00000   9.00000    180112                znucl, zion, pspdat
    8 -116133    2    4       400   0.00000   pspcod,pspxc,lmax,lloc,mmax,r2well
    3.99000000000000    5.00000000000000    0.00000000000000   rchrg,fchrg,qchrg
     nproj     2     2     2
     extension_switch     1
  pspatm : epsatm=    8.32487830
         --- l  ekb(1:nproj) -->
             0   10.921326    0.816676
             1    4.431000    0.560368
             2   -3.384038   -1.043186
 pspatm: atomic psp has been read  and splines computed
 
- pspini: atom type   2  psp file is /scratch/users/j/a/jabreu/pseudos/PBEsol/Mg.psp8
- pspatm: opening atomic psp file    /scratch/users/j/a/jabreu/pseudos/PBEsol/Mg.psp8
- Mg    ONCVPSP-3.3.0  r_core=   1.16056   1.56380
- 12.00000  10.00000    180112                znucl, zion, pspdat
    8 -116133    1    4       400   0.00000   pspcod,pspxc,lmax,lloc,mmax,r2well
    3.99000000000000    0.00000000000000    0.00000000000000   rchrg,fchrg,qchrg
     nproj     2     2
     extension_switch     1
  pspatm : epsatm=    9.18164846
         --- l  ekb(1:nproj) -->
             0    2.230603   -0.826587
             1   -6.503151   -2.501445
 pspatm: atomic psp has been read  and splines computed
 
- pspini: atom type   3  psp file is /scratch/users/j/a/jabreu/pseudos/PBEsol/Sb.psp8
- pspatm: opening atomic psp file    /scratch/users/j/a/jabreu/pseudos/PBEsol/Sb.psp8
- Sb    ONCVPSP-3.3.0  r_core=   1.81962   2.12485   1.81962
- 51.00000  15.00000    180112                znucl, zion, pspdat
    8 -116133    2    4       600   0.00000   pspcod,pspxc,lmax,lloc,mmax,r2well
    5.99000000000000    5.00000000000000    0.00000000000000   rchrg,fchrg,qchrg
     nproj     2     2     2
     extension_switch     1
  pspatm : epsatm=   26.35641246
         --- l  ekb(1:nproj) -->
             0    9.727814    1.485032
             1    5.505335    0.704623
             2   -4.710637   -1.436443
 pspatm: atomic psp has been read  and splines computed
 
   5.96535973E+03                                ecore*ucvol(ha*bohr**3)
--------------------------------------------------------------------------------
 
-inwffil : will read wavefunctions from disk file /scratch/users/j/a/jabreu/flow_simple_6atoms/flow/w217/t1/indata/in_WFK
 
 ==>  initialize data related to q vector <== 
 
 The list of irreducible perturbations for this q vector is:
    1)    idir= 1    ipert=   7
    2)    idir= 2    ipert=   7
    3)    idir= 3    ipert=   7
 
================================================================================
 
--------------------------------------------------------------------------------
 Perturbation wavevector (in red.coord.)   0.000000  0.000000  0.000000
 Perturbation : derivative vs k along direction   1
 
 dfpt_looppert : COMMENT -
  In a d/dk calculation, iscf is set to -3 automatically.
 The set of symmetries contains only one element for this perturbation.
 symkpt : not enough symmetry to change the number of k points.
 
--------------------------------------------------------------------------------
 
-inwffil : will read wavefunctions from disk file /scratch/users/j/a/jabreu/flow_simple_6atoms/flow/w217/t1/indata/in_WFK
--------------------------------------------------------------------------------
 
 Initialisation of the first-order wave-functions :
  ireadwf=   0

--- !BeginCycle
iteration_state: {dtset: 1, }
solver: {iscf: 7, nstep: 1000, nline: 4, wfoptalg: 0, }
tolerances: {tolwfr: 1.00E-20, }
...
 
     iter   2DEtotal(Ha)        deltaE(Ha) residm    vres2
-ETOT  1  -60.954849713166     -6.095E+01 1.685E-01 0.000E+00
 ETOT  2  -61.023347212308     -6.850E-02 1.534E-03 0.000E+00
 ETOT  3  -61.024347173889     -1.000E-03 5.745E-04 0.000E+00
 ETOT  4  -61.024382110068     -3.494E-05 1.016E-05 0.000E+00
 ETOT  5  -61.024383696232     -1.586E-06 2.753E-06 0.000E+00
 ETOT  6  -61.024383781360     -8.513E-08 7.489E-08 0.000E+00
 ETOT  7  -61.024383786860     -5.500E-09 2.814E-08 0.000E+00
 ETOT  8  -61.024383787243     -3.831E-10 8.684E-10 0.000E+00
 ETOT  9  -61.024383787271     -2.848E-11 4.098E-10 0.000E+00
 ETOT 10  -61.024383787273     -1.933E-12 1.446E-11 0.000E+00
 ETOT 11  -61.024383787274     -1.776E-13 5.054E-12 0.000E+00
 ETOT 12  -61.024383787274     -9.237E-14 3.144E-13 0.000E+00
 ETOT 13  -61.024383787274     -1.421E-14 8.530E-14 0.000E+00
 ETOT 14  -61.024383787274      7.105E-14 6.768E-15 0.000E+00
 ETOT 15  -61.024383787274     -7.816E-14 1.850E-15 0.000E+00
 ETOT 16  -61.024383787274      2.132E-14 1.472E-16 0.000E+00
 ETOT 17  -61.024383787274      2.842E-14 4.050E-17 0.000E+00
 ETOT 18  -61.024383787274     -1.421E-14 3.230E-18 0.000E+00
 ETOT 19  -61.024383787274      0.000E+00 8.933E-19 0.000E+00
 ETOT 20  -61.024383787274      0.000E+00 7.148E-20 0.000E+00
 ETOT 21  -61.024383787274      0.000E+00 1.985E-20 0.000E+00
 ETOT 22  -61.024383787274      1.421E-14 9.752E-21 0.000E+00
 
 At SCF step   22   max residual=  9.75E-21 < tolwfr=  1.00E-20 =>converged.
================================================================================
 
 ----iterations are completed or convergence reached----
 
 dfpt_looppert: DFPT cycle converged with prtwf=-1. Will skip output of the 1st-order WFK file.
 dfpt_looppert : ek2=    6.5882212682E+01
          f-sum rule ratio=    1.2875319298E+00
 prteigrs : about to open file /scratch/users/j/a/jabreu/flow_simple_6atoms/flow/w217/t1/tmpdata/tmp_1WF1_EIG
 Expectation of eigenvalue derivatives (hartree) for nkpt=   2  k points:
  (in case of degenerate eigenvalues, averaged derivative)
 kpt#   1, nband= 43, wtk=  0.50000, kpt=  0.0000  0.0000  0.5000 (reduced coord)
  -0.00000    0.00000   -0.00000    0.00000   -0.00000   -0.00000   -0.00000   -0.00000
  -0.00000   -0.00000   -0.00000   -0.00000   -0.00000   -0.00000   -0.00000    0.00000
   0.00000   -0.00000   -0.00000    0.00000    0.00000   -0.00000   -0.00000    0.00000
   0.00000    0.00000   -0.00000    0.00000   -0.00000    0.00000   -0.00000   -0.00000
   0.00000    0.00000   -0.00000   -0.00000   -0.00000   -0.00000    0.00000   -0.00001
  -0.00001   -0.00000   -0.00000
 prteigrs : prtvol=0 or 1, do not print more k-points.
 
 
 Eight components of 2nd-order total energy (hartree) are
 1,2,3: 0th-order hamiltonian combined with 1st-order wavefunctions
     kin0=   6.33018472E+01 eigvalue=   1.02594070E+01  local=  -3.64875631E+01
 4,5,6: 1st-order hamiltonian combined with 1st and 0th-order wfs
     kin1=  -8.48254524E+01  Hartree=   0.00000000E+00     xc=   0.00000000E+00
 7,8,9: eventually, occupation + non-local contributions
    edocc=   1.70763645E+01     enl0=   6.87432818E+00   enl1=  -3.72233151E+01
 1-9 gives the relaxation energy (to be shifted if some occ is /=2.0)
   erelax=  -6.10243838E+01
  No Ewald or frozen-wf contrib.: the relaxation energy is the total one
 2DEtotal=   -0.6102438379E+02 Ha. Also 2DEtotal=   -0.166055793206E+04 eV
    (  non-var. 2DEtotal :   -6.1024383787E+01 Ha)
 
--------------------------------------------------------------------------------
 Perturbation wavevector (in red.coord.)   0.000000  0.000000  0.000000
 Perturbation : derivative vs k along direction   2
 The set of symmetries contains only one element for this perturbation.
 symkpt : not enough symmetry to change the number of k points.
 
--------------------------------------------------------------------------------
 
-inwffil : will read wavefunctions from disk file /scratch/users/j/a/jabreu/flow_simple_6atoms/flow/w217/t1/indata/in_WFK
--------------------------------------------------------------------------------
 
 Initialisation of the first-order wave-functions :
  ireadwf=   0

--- !BeginCycle
iteration_state: {dtset: 1, }
solver: {iscf: 7, nstep: 1000, nline: 4, wfoptalg: 0, }
tolerances: {tolwfr: 1.00E-20, }
...
 
     iter   2DEtotal(Ha)        deltaE(Ha) residm    vres2
-ETOT  1  -60.954850060930     -6.095E+01 3.335E-01 0.000E+00
 ETOT  2  -61.023346669530     -6.850E-02 7.216E-02 0.000E+00
 ETOT  3  -61.024347328740     -1.001E-03 7.795E-03 0.000E+00
 ETOT  4  -61.024382321052     -3.499E-05 1.572E-03 0.000E+00
 ETOT  5  -61.024383909407     -1.588E-06 1.634E-04 0.000E+00
 ETOT  6  -61.024383994585     -8.518E-08 5.064E-05 0.000E+00
 ETOT  7  -61.024384000087     -5.502E-09 5.257E-06 0.000E+00
 ETOT  8  -61.024384000469     -3.825E-10 1.766E-06 0.000E+00
 ETOT  9  -61.024384000498     -2.832E-11 1.851E-07 0.000E+00
 ETOT 10  -61.024384000500     -2.117E-12 6.294E-08 0.000E+00
 ETOT 11  -61.024384000500     -5.684E-14 6.621E-09 0.000E+00
 ETOT 12  -61.024384000500     -4.263E-14 2.278E-09 0.000E+00
 ETOT 13  -61.024384000500     -2.842E-14 2.397E-10 0.000E+00
 ETOT 14  -61.024384000500     -4.263E-14 8.342E-11 0.000E+00
 ETOT 15  -61.024384000500      1.421E-14 8.769E-12 0.000E+00
 ETOT 16  -61.024384000500      0.000E+00 3.084E-12 0.000E+00
 ETOT 17  -61.024384000500     -2.842E-14 3.234E-13 0.000E+00
 ETOT 18  -61.024384000500      0.000E+00 1.149E-13 0.000E+00
 ETOT 19  -61.024384000500     -2.132E-14 1.200E-14 0.000E+00
 ETOT 20  -61.024384000500      0.000E+00 4.305E-15 0.000E+00
 ETOT 21  -61.024384000500      4.263E-14 4.477E-16 0.000E+00
 ETOT 22  -61.024384000500     -2.842E-14 1.642E-16 0.000E+00
 ETOT 23  -61.024384000500      7.105E-15 1.686E-17 0.000E+00
 ETOT 24  -61.024384000500      2.132E-14 6.549E-18 0.000E+00
 ETOT 25  -61.024384000500     -1.421E-14 6.506E-19 0.000E+00
 ETOT 26  -61.024384000500      1.421E-14 2.537E-19 0.000E+00
 ETOT 27  -61.024384000500      0.000E+00 2.544E-20 0.000E+00
 ETOT 28  -61.024384000500     -2.842E-14 9.986E-21 0.000E+00
 
 At SCF step   28   max residual=  9.99E-21 < tolwfr=  1.00E-20 =>converged.
================================================================================
 
 ----iterations are completed or convergence reached----
 
 dfpt_looppert: DFPT cycle converged with prtwf=-1. Will skip output of the 1st-order WFK file.
 dfpt_looppert : ek2=    6.5882212682E+01
          f-sum rule ratio=    1.2875319345E+00
 prteigrs : about to open file /scratch/users/j/a/jabreu/flow_simple_6atoms/flow/w217/t1/tmpdata/tmp_1WF1_EIG
 Expectation of eigenvalue derivatives (hartree) for nkpt=   2  k points:
  (in case of degenerate eigenvalues, averaged derivative)
 kpt#   1, nband= 43, wtk=  0.50000, kpt=  0.0000  0.0000  0.5000 (reduced coord)
  -0.00000    0.00000    0.00000   -0.00000    0.00000    0.00000   -0.00000   -0.00000
  -0.00000   -0.00000    0.00000    0.00000    0.00000   -0.00000   -0.00000   -0.00000
  -0.00000    0.00000    0.00000    0.00000   -0.00000    0.00000    0.00000    0.00000
   0.00000    0.00000   -0.00000    0.00000    0.00000   -0.00000   -0.00000   -0.00000
   0.00000    0.00000    0.00000   -0.00000   -0.00000    0.00000   -0.00000   -0.00001
  -0.00001   -0.00000   -0.00000
 prteigrs : prtvol=0 or 1, do not print more k-points.
 
 
 Eight components of 2nd-order total energy (hartree) are
 1,2,3: 0th-order hamiltonian combined with 1st-order wavefunctions
     kin0=   6.33018468E+01 eigvalue=   1.02594069E+01  local=  -3.64875628E+01
 4,5,6: 1st-order hamiltonian combined with 1st and 0th-order wfs
     kin1=  -8.48254527E+01  Hartree=   0.00000000E+00     xc=   0.00000000E+00
 7,8,9: eventually, occupation + non-local contributions
    edocc=   1.70763649E+01     enl0=   6.87432823E+00   enl1=  -3.72233153E+01
 1-9 gives the relaxation energy (to be shifted if some occ is /=2.0)
   erelax=  -6.10243840E+01
  No Ewald or frozen-wf contrib.: the relaxation energy is the total one
 2DEtotal=   -0.6102438400E+02 Ha. Also 2DEtotal=   -0.166055793786E+04 eV
    (  non-var. 2DEtotal :   -6.1024384000E+01 Ha)
 
--------------------------------------------------------------------------------
 Perturbation wavevector (in red.coord.)   0.000000  0.000000  0.000000
 Perturbation : derivative vs k along direction   3
 The set of symmetries contains only one element for this perturbation.
 symkpt : not enough symmetry to change the number of k points.
 
--------------------------------------------------------------------------------
 
-inwffil : will read wavefunctions from disk file /scratch/users/j/a/jabreu/flow_simple_6atoms/flow/w217/t1/indata/in_WFK
--------------------------------------------------------------------------------
 
 Initialisation of the first-order wave-functions :
  ireadwf=   0

--- !BeginCycle
iteration_state: {dtset: 1, }
solver: {iscf: 7, nstep: 1000, nline: 4, wfoptalg: 0, }
tolerances: {tolwfr: 1.00E-20, }
...
 
     iter   2DEtotal(Ha)        deltaE(Ha) residm    vres2
-ETOT  1  -17.706448548549     -1.771E+01 3.622E-02 0.000E+00
 ETOT  2  -17.728735642723     -2.229E-02 5.762E-03 0.000E+00
 ETOT  3  -17.728966140929     -2.305E-04 3.138E-04 0.000E+00
 ETOT  4  -17.728970646934     -4.506E-06 1.860E-05 0.000E+00
 ETOT  5  -17.728970757474     -1.105E-07 4.540E-06 0.000E+00
 ETOT  6  -17.728970760524     -3.051E-09 2.150E-07 0.000E+00
 ETOT  7  -17.728970760619     -9.442E-11 6.597E-08 0.000E+00
 ETOT  8  -17.728970760622     -3.251E-12 6.037E-09 0.000E+00
 ETOT  9  -17.728970760622     -7.105E-14 9.694E-10 0.000E+00
 ETOT 10  -17.728970760622     -3.553E-15 1.829E-10 0.000E+00
 ETOT 11  -17.728970760622     -1.421E-14 2.521E-11 0.000E+00
 ETOT 12  -17.728970760622      1.066E-14 5.698E-12 0.000E+00
 ETOT 13  -17.728970760622     -3.553E-15 7.878E-13 0.000E+00
 ETOT 14  -17.728970760622     -7.105E-15 1.788E-13 0.000E+00
 ETOT 15  -17.728970760622      3.553E-15 2.481E-14 0.000E+00
 ETOT 16  -17.728970760622     -3.553E-15 5.750E-15 0.000E+00
 ETOT 17  -17.728970760622      3.553E-15 1.069E-15 0.000E+00
 ETOT 18  -17.728970760622     -3.553E-15 2.456E-16 0.000E+00
 ETOT 19  -17.728970760622      7.105E-15 4.774E-17 0.000E+00
 ETOT 20  -17.728970760622     -7.105E-15 9.650E-18 0.000E+00
 ETOT 21  -17.728970760622      3.553E-15 1.878E-18 0.000E+00
 ETOT 22  -17.728970760622     -3.553E-15 3.800E-19 0.000E+00
 ETOT 23  -17.728970760622      0.000E+00 7.399E-20 0.000E+00
 ETOT 24  -17.728970760622      3.553E-15 1.499E-20 0.000E+00
 ETOT 25  -17.728970760622      0.000E+00 9.949E-21 0.000E+00
 
 At SCF step   25   max residual=  9.95E-21 < tolwfr=  1.00E-20 =>converged.
================================================================================
 
 ----iterations are completed or convergence reached----
 
 dfpt_looppert: DFPT cycle converged with prtwf=-1. Will skip output of the 1st-order WFK file.
 dfpt_looppert : ek2=    2.2319983445E+01
          f-sum rule ratio=    1.0334015826E+00
 prteigrs : about to open file /scratch/users/j/a/jabreu/flow_simple_6atoms/flow/w217/t1/tmpdata/tmp_1WF1_EIG
 Expectation of eigenvalue derivatives (hartree) for nkpt=   2  k points:
  (in case of degenerate eigenvalues, averaged derivative)
 kpt#   1, nband= 43, wtk=  0.50000, kpt=  0.0000  0.0000  0.5000 (reduced coord)
   0.00000   -0.00000   -0.00000   -0.00000    0.00000    0.00000    0.00000    0.00000
   0.00000   -0.00000    0.00000    0.00000    0.00000   -0.00000   -0.00000    0.00000
  -0.00000   -0.00000    0.00000   -0.00000   -0.00000    0.00000    0.00000   -0.00000
  -0.00000   -0.00000   -0.00000   -0.00000    0.00000    0.00000   -0.00000   -0.00000
   0.00000    0.00000    0.00000   -0.00000    0.00000   -0.00000    0.00000   -0.00000
  -0.00000    0.00000    0.00000
 prteigrs : prtvol=0 or 1, do not print more k-points.
 
 
 Eight components of 2nd-order total energy (hartree) are
 1,2,3: 0th-order hamiltonian combined with 1st-order wavefunctions
     kin0=   2.13118154E+01 eigvalue=   3.56938524E+00  local=  -1.23510578E+01
 4,5,6: 1st-order hamiltonian combined with 1st and 0th-order wfs
     kin1=  -2.30655062E+01  Hartree=   0.00000000E+00     xc=   0.00000000E+00
 7,8,9: eventually, occupation + non-local contributions
    edocc=   2.79413466E+00     enl0=   2.40469320E+00   enl1=  -1.23924353E+01
 1-9 gives the relaxation energy (to be shifted if some occ is /=2.0)
   erelax=  -1.77289708E+01
  No Ewald or frozen-wf contrib.: the relaxation energy is the total one
 2DEtotal=   -0.1772897076E+02 Ha. Also 2DEtotal=   -0.482429828810E+03 eV
    (  non-var. 2DEtotal :   -1.7728970760E+01 Ha)
 
 CALCULATION OF EFFECTIVE MASSES
 NOTE : Additional infos (eff. mass eigenvalues, eigenvectors and, if degenerate, average mass) are available in stdout.

 COMMENTS: 
 - At k-point ( 0.000,-0.000, 0.500), bands    33 through    34
   are DEGENERATE (effective mass tensor is therefore not defined).
   See Section IIIB Eqs. (67)-(70) and Appendix E of PRB 93 205147 (2016).
 - Angular average effective mass for Frohlich model is to be averaged over degenerate bands. See later.
 - Associated theta integrals calculated with ntheta=   1000 points.

 K-point ( 0.000,-0.000, 0.500) | band =    33
 Transport equivalent effective mass tensor:
             -0.2636585209              0.0000000154             -0.0000002096
              0.0000000154             -0.2636584352              0.0000005160
             -0.0000002096              0.0000005160            -21.3458497030
 Transport equivalent effective mass tensor eigenvalues:
            -21.3458497030             -0.2636585236             -0.2636584325
 Angular average effective mass 1/(<1/m>)=  -0.3284775450
 Angular average effective mass for Frohlich model (<m**0.5>)**2=  -0.4814437234
 Effective masses along directions: (cart. coord. / red. coord. -> eff. mass)
    1:   1.000000  0.000000  0.000000 /   1.000000  0.000000  0.000000 ->  -0.1837947960
    2:   0.000000  1.000000  0.000000 /   0.000000  1.000000  0.000000 ->  -0.1837947960
    3:   0.000000  0.000000  1.000000 /   0.000000  0.000000  1.000000 -> -15.8747082397
    4:   0.577350  0.577350  0.577350 /   0.449389  0.449389  0.772075 ->  -0.4710599274
    5:   0.000000  0.707107  0.707107 /   0.000000  0.503045  0.864260 ->  -0.3633824018
    6:   0.707107  0.000000  0.707107 /   0.503045  0.000000  0.864260 ->  -0.3633824426
    7:   0.707107  0.707107  0.000000 /   0.707107  0.707107  0.000000 ->  -0.3171772491

 K-point ( 0.000,-0.000, 0.500) | band =    34
 Transport equivalent effective mass tensor:
             -4.7171453231              0.0000000947             -0.0000006051
              0.0000000947             -4.7171628821              0.0000177707
             -0.0000006051              0.0000177707           -175.0478117538
 Transport equivalent effective mass tensor eigenvalues:
           -175.0478117538             -4.7171628826             -4.7171453226
 Angular average effective mass 1/(<1/m>)=  -1.2386761085
 Angular average effective mass for Frohlich model (<m**0.5>)**2=  -2.1637406206
 Effective masses along directions: (cart. coord. / red. coord. -> eff. mass)
    1:   1.000000  0.000000  0.000000 /   1.000000  0.000000  0.000000 ->  -3.6543167832
    2:   0.000000  1.000000  0.000000 /   0.000000  1.000000  0.000000 ->  -3.6543167830
    3:   0.000000  0.000000  1.000000 /   0.000000  0.000000  1.000000 -> -15.8748049288
    4:   0.577350  0.577350  0.577350 /   0.449389  0.449389  0.772075 ->  -0.5784393162
    5:   0.000000  0.707107  0.707107 /   0.000000  0.503045  0.864260 ->  -5.9410173959
    6:   0.707107  0.000000  0.707107 /   0.503045  0.000000  0.864260 ->  -5.9410238986
    7:   0.707107  0.707107  0.000000 /   0.707107  0.707107  0.000000 ->  -0.3903675757

 Angular average effective mass for Frohlich model, averaged over degenerate bands.
 Value of     (<<m**0.5>>)**2 =     1.171619E+00
 Absolute Value of <<m**0.5>> =     1.082414E+00


 K-point ( 0.000, 0.000, 0.000) | band =    35
 Effective mass tensor:
              0.1951098836              0.0000000000             -0.0000000000
              0.0000000000              0.1951098835             -0.0000000000
             -0.0000000000             -0.0000000000              1.6013719823
 Effective mass tensor eigenvalues:
              0.1951098835              0.1951098836              1.6013719823
 Angular average effective mass 1/(<1/m>)=   0.2758595704
 Angular average effective mass for Frohlich model (<m**0.5>)**2=   0.3275745085
 Effective masses along directions: (cart. coord. / red. coord. -> eff. mass)
    1:   1.000000  0.000000  0.000000 /   1.000000  0.000000  0.000000 ->   0.1951098836
    2:   0.000000  1.000000  0.000000 /   0.000000  1.000000  0.000000 ->   0.1951098835
    3:   0.000000  0.000000  1.000000 /   0.000000  0.000000  1.000000 ->   1.6013719823
    4:   0.577350  0.577350  0.577350 /   0.449389  0.449389  0.772075 ->   0.2758595704
    5:   0.000000  0.707107  0.707107 /   0.000000  0.503045  0.864260 ->   0.3478393040
    6:   0.707107  0.000000  0.707107 /   0.503045  0.000000  0.864260 ->   0.3478393041
    7:   0.707107  0.707107  0.000000 /   0.707107  0.707107  0.000000 ->   0.1951098835

 END OF EFFECTIVE MASSES SECTION

================================================================================
 
 ---- first-order wavefunction calculations are completed ----
 
 
 Total localisation tensor (bohr^2) in cartesian coordinates
  WARNING : still subject to testing - especially symmetries.
      direction              matrix element
   alpha     beta       real part   imaginary part
     1        1       3.0740820362    0.0000000000
     1        2       0.0000000000    0.0000000000
     1        3       0.0000000000    0.0000000000
     2        1       0.0000000000    0.0000000000
     2        2       3.0740820452    0.0000000000
     2        3       0.0000000000    0.0000000000
     3        1       0.0000000000    0.0000000000
     3        2       0.0000000000    0.0000000000
     3        3       1.3751150786    0.0000000000
 
 respfn : d/dk was computed, but no 2DTE, so no DDB output.
 
== END DATASET(S) ==============================================================
================================================================================
  
 -outvars: echo values of variables after computation  --------
            acell      1.0000000000E+00  1.0000000000E+00  1.0000000000E+00 Bohr
              amu      3.90983000E+01  2.43050000E+01  1.21753000E+02
             ecut      4.20000000E+01 Hartree
           etotal     -1.7728970761E+01
            fcart      0.0000000000E+00  0.0000000000E+00  0.0000000000E+00
                       0.0000000000E+00  0.0000000000E+00  0.0000000000E+00
                       0.0000000000E+00  0.0000000000E+00  0.0000000000E+00
                       0.0000000000E+00  0.0000000000E+00  0.0000000000E+00
                       0.0000000000E+00  0.0000000000E+00  0.0000000000E+00
                       0.0000000000E+00  0.0000000000E+00  0.0000000000E+00
-          fftalg         512
           irdden           1
           irdwfk           1
           istwfk        1    1
              ixc     -116133
              kpt      0.00000000E+00 -3.08148791E-33  5.00000000E-01
                       0.00000000E+00  0.00000000E+00  0.00000000E+00
           kptopt           0
P           mkmem           2
P          mkqmem           2
P          mk1mem           2
            natom           6
            nband          43
           nbdbuf           4
            ngfft          54      54      96
             nkpt           2
            nstep        1000
             nsym          16
           ntypat           3
              occ      2.000000  2.000000  2.000000  2.000000  2.000000  2.000000
                       2.000000  2.000000  2.000000  2.000000  2.000000  2.000000
                       2.000000  2.000000  2.000000  2.000000  2.000000  2.000000
                       2.000000  2.000000  2.000000  2.000000  2.000000  2.000000
                       2.000000  2.000000  2.000000  2.000000  2.000000  2.000000
                       2.000000  2.000000  2.000000  2.000000  0.000000  0.000000
                       0.000000  0.000000  0.000000  0.000000  0.000000  0.000000
                       0.000000
        optdriver           1
            prtwf          -1
            rfdir           1       1       1
           rfelfd           2
            rprim      9.0274529620E+00  0.0000000000E+00  0.0000000000E+00
                       0.0000000000E+00  9.0274529620E+00  0.0000000000E+00
                       0.0000000000E+00  0.0000000000E+00  1.5509663967E+01
          spgroup         129
           strten      0.0000000000E+00  0.0000000000E+00  0.0000000000E+00
                       0.0000000000E+00  0.0000000000E+00  0.0000000000E+00
           symrel      1  0  0   0  1  0   0  0  1      -1  0  0   0 -1  0   0  0 -1
                      -1  0  0   0  1  0   0  0 -1       1  0  0   0 -1  0   0  0  1
                      -1  0  0   0 -1  0   0  0  1       1  0  0   0  1  0   0  0 -1
                       1  0  0   0 -1  0   0  0 -1      -1  0  0   0  1  0   0  0  1
                       0  1  0   1  0  0   0  0  1       0 -1  0  -1  0  0   0  0 -1
                       0 -1  0   1  0  0   0  0 -1       0  1  0  -1  0  0   0  0  1
                       0 -1  0  -1  0  0   0  0  1       0  1  0   1  0  0   0  0 -1
                       0  1  0  -1  0  0   0  0 -1       0 -1  0   1  0  0   0  0  1
            tnons      0.0000000  0.0000000  0.0000000     0.5000000  0.5000000  0.0000000
                       0.5000000  0.5000000  0.0000000     0.0000000  0.0000000  0.0000000
                       0.0000000  0.0000000  0.0000000     0.5000000  0.5000000  0.0000000
                       0.5000000  0.5000000  0.0000000     0.0000000  0.0000000  0.0000000
                       0.5000000  0.5000000  0.0000000     0.0000000  0.0000000  0.0000000
                       0.0000000  0.0000000  0.0000000     0.5000000  0.5000000  0.0000000
                       0.5000000  0.5000000  0.0000000     0.0000000  0.0000000  0.0000000
                       0.0000000  0.0000000  0.0000000     0.5000000  0.5000000  0.0000000
           tolwfr      1.00000000E-20
            typat      1  1  2  2  3  3
           useylm           1
              wtk        0.50000    0.50000
           xangst      0.0000000000E+00  2.3885611796E+00  5.3237947887E+00
                       2.3885611796E+00  0.0000000000E+00  2.8835658954E+00
                       2.3885611796E+00  2.3885611796E+00  0.0000000000E+00
                       0.0000000000E+00  0.0000000000E+00  0.0000000000E+00
                       0.0000000000E+00  2.3885611796E+00  1.6659218643E+00
                       2.3885611796E+00  0.0000000000E+00  6.5414388198E+00
            xcart      0.0000000000E+00  4.5137264810E+00  1.0060514138E+01
                       4.5137264810E+00  0.0000000000E+00  5.4491498284E+00
                       4.5137264810E+00  4.5137264810E+00  0.0000000000E+00
                       0.0000000000E+00  0.0000000000E+00  0.0000000000E+00
                       0.0000000000E+00  4.5137264810E+00  3.1481360823E+00
                       4.5137264810E+00  0.0000000000E+00  1.2361527884E+01
             xred      0.0000000000E+00  5.0000000000E-01  6.4866100000E-01
                       5.0000000000E-01  0.0000000000E+00  3.5133900000E-01
                       5.0000000000E-01  5.0000000000E-01  0.0000000000E+00
                       0.0000000000E+00  0.0000000000E+00  0.0000000000E+00
                       0.0000000000E+00  5.0000000000E-01  2.0297900000E-01
                       5.0000000000E-01  0.0000000000E+00  7.9702100000E-01
            znucl       19.00000   12.00000   51.00000
 
================================================================================


- Timing analysis has been suppressed with timopt=0



================================================================================

 Suggested references for the acknowledgment of ABINIT usage.

 The users of ABINIT have little formal obligations with respect to the ABINIT group
 (those specified in the GNU General Public License, http://www.gnu.org/copyleft/gpl.txt).
 However, it is common practice in the scientific literature,
 to acknowledge the efforts of people that have made the research possible.
 In this spirit, please find below suggested citations of work written by ABINIT developers,
 corresponding to implementations inside of ABINIT that you have used in the present run.
 Note also that it will be of great value to readers of publications presenting these results,
 to read papers enabling them to understand the theoretical formalism and details
 of the ABINIT implementation.
 For information on why they are suggested, see also https://docs.abinit.org/theory/acknowledgments.
-
- [1] Precise effective masses from density functional perturbation theory
- J. Laflamme Janssen, Y. Gillet, S. Ponce, A. Martin, M. Torrent, and X. Gonze. Phys. Rev. B 93, 205147 (2016)
- Comment: in case the DFPT prediction of effective masses is used.
- Strong suggestion to cite this paper in your publications.
- DOI and bibtex: see https://docs.abinit.org/theory/bibliography/#laflamme2016
-
- [2] Libxc: A library of exchange and correlation functionals for density functional theory.
- M.A.L. Marques, M.J.T. Oliveira, T. Burnus, Computer Physics Communications 183, 2227 (2012).
- Comment: to be cited when LibXC is used (negative value of ixc)
- Strong suggestion to cite this paper.
- DOI and bibtex: see https://docs.abinit.org/theory/bibliography/#marques2012
-
- [3] The Abinit project: Impact, environment and recent developments.
- Computer Phys. Comm. 248, 107042 (2020).
- X.Gonze, B. Amadon, G. Antonius, F.Arnardi, L.Baguet, J.-M.Beuken,
- J.Bieder, F.Bottin, J.Bouchet, E.Bousquet, N.Brouwer, F.Bruneval,
- G.Brunin, T.Cavignac, J.-B. Charraud, Wei Chen, M.Cote, S.Cottenier,
- J.Denier, G.Geneste, Ph.Ghosez, M.Giantomassi, Y.Gillet, O.Gingras,
- D.R.Hamann, G.Hautier, Xu He, N.Helbig, N.Holzwarth, Y.Jia, F.Jollet,
- W.Lafargue-Dit-Hauret, K.Lejaeghere, M.A.L.Marques, A.Martin, C.Martins,
- H.P.C. Miranda, F.Naccarato, K. Persson, G.Petretto, V.Planes, Y.Pouillon,
- S.Prokhorenko, F.Ricci, G.-M.Rignanese, A.H.Romero, M.M.Schmitt, M.Torrent,
- M.J.van Setten, B.Van Troeye, M.J.Verstraete, G.Zerah and J.W.Zwanzig
- Comment: the fifth generic paper describing the ABINIT project.
- Note that a version of this paper, that is not formatted for Computer Phys. Comm. 
- is available at https://www.abinit.org/sites/default/files/ABINIT20.pdf .
- The licence allows the authors to put it on the Web.
- DOI and bibtex: see https://docs.abinit.org/theory/bibliography/#gonze2020
-
- [4] First-principles responses of solids to atomic displacements and homogeneous electric fields:,
- implementation of a conjugate-gradient algorithm. X. Gonze, Phys. Rev. B55, 10337 (1997).
- Comment: Non-vanishing rfphon and/or rfelfd, in the norm-conserving case.
- DOI and bibtex: see https://docs.abinit.org/theory/bibliography/#gonze1997
-
- [5] Dynamical matrices, Born effective charges, dielectric permittivity tensors, and ,
- interatomic force constants from density-functional perturbation theory,
- X. Gonze and C. Lee, Phys. Rev. B55, 10355 (1997).
- Comment: Non-vanishing rfphon and/or rfelfd, in the norm-conserving case.
- DOI and bibtex: see https://docs.abinit.org/theory/bibliography/#gonze1997a
-
- [6] Optimized norm-conserving Vanderbilt pseudopotentials.
- D.R. Hamann, Phys. Rev. B 88, 085117 (2013).
- Comment: Some pseudopotential generated using the ONCVPSP code were used.
- DOI and bibtex: see https://docs.abinit.org/theory/bibliography/#hamann2013
-
- [7] ABINIT: Overview, and focus on selected capabilities
- J. Chem. Phys. 152, 124102 (2020).
- A. Romero, D.C. Allan, B. Amadon, G. Antonius, T. Applencourt, L.Baguet,
- J.Bieder, F.Bottin, J.Bouchet, E.Bousquet, F.Bruneval,
- G.Brunin, D.Caliste, M.Cote,
- J.Denier, C. Dreyer, Ph.Ghosez, M.Giantomassi, Y.Gillet, O.Gingras,
- D.R.Hamann, G.Hautier, F.Jollet, G. Jomard,
- A.Martin, 
- H.P.C. Miranda, F.Naccarato, G.Petretto, N.A. Pike, V.Planes,
- S.Prokhorenko, T. Rangel, F.Ricci, G.-M.Rignanese, M.Royo, M.Stengel, M.Torrent,
- M.J.van Setten, B.Van Troeye, M.J.Verstraete, J.Wiktor, J.W.Zwanziger, and X.Gonze.
- Comment: a global overview of ABINIT, with focus on selected capabilities .
- Note that a version of this paper, that is not formatted for J. Chem. Phys 
- is available at https://www.abinit.org/sites/default/files/ABINIT20_JPC.pdf .
- The licence allows the authors to put it on the Web.
- DOI and bibtex: see https://docs.abinit.org/theory/bibliography/#romero2020
-
- [8] Recent developments in the ABINIT software package.
- Computer Phys. Comm. 205, 106 (2016).
- X.Gonze, F.Jollet, F.Abreu Araujo, D.Adams, B.Amadon, T.Applencourt,
- C.Audouze, J.-M.Beuken, J.Bieder, A.Bokhanchuk, E.Bousquet, F.Bruneval
- D.Caliste, M.Cote, F.Dahm, F.Da Pieve, M.Delaveau, M.Di Gennaro,
- B.Dorado, C.Espejo, G.Geneste, L.Genovese, A.Gerossier, M.Giantomassi,
- Y.Gillet, D.R.Hamann, L.He, G.Jomard, J.Laflamme Janssen, S.Le Roux,
- A.Levitt, A.Lherbier, F.Liu, I.Lukacevic, A.Martin, C.Martins,
- M.J.T.Oliveira, S.Ponce, Y.Pouillon, T.Rangel, G.-M.Rignanese,
- A.H.Romero, B.Rousseau, O.Rubel, A.A.Shukri, M.Stankovski, M.Torrent,
- M.J.Van Setten, B.Van Troeye, M.J.Verstraete, D.Waroquier, J.Wiktor,
- B.Xu, A.Zhou, J.W.Zwanziger.
- Comment: the fourth generic paper describing the ABINIT project.
- Note that a version of this paper, that is not formatted for Computer Phys. Comm. 
- is available at https://www.abinit.org/sites/default/files/ABINIT16.pdf .
- The licence allows the authors to put it on the Web.
- DOI and bibtex: see https://docs.abinit.org/theory/bibliography/#gonze2016
-
- Proc.   0 individual time (sec): cpu=        263.6  wall=        268.3
 
================================================================================
 
 Calculation completed.
.Delivered  14 WARNINGs and   9 COMMENTs to log file.
+Overall time at end (sec) : cpu=        263.6  wall=        268.3
