
.Version 9.7.2 of ABINIT 
.(MPI version, prepared for a x86_64_linux_intel19.1 computer) 

.Copyright (C) 1998-2021 ABINIT group . 
 ABINIT comes with ABSOLUTELY NO WARRANTY.
 It is free software, and you are welcome to redistribute it
 under certain conditions (GNU General Public License,
 see ~abinit/COPYING or http://www.gnu.org/copyleft/gpl.txt).

 ABINIT is a project of the Universite Catholique de Louvain,
 Corning Inc. and other collaborators, see ~abinit/doc/developers/contributors.txt .
 Please read https://docs.abinit.org/theory/acknowledgments for suggested
 acknowledgments of the ABINIT effort.
 For more information, see https://www.abinit.org .

.Starting date : Wed  1 Dec 2021.
- ( at 22h04 )
  
- input  file    -> /scratch/users/j/a/jabreu/flow_simple_remain_atoms/flow/w275/t1/run.abi
- output file    -> /scratch/users/j/a/jabreu/flow_simple_remain_atoms/flow/w275/t1/run.abo
- root for input  files -> /scratch/users/j/a/jabreu/flow_simple_remain_atoms/flow/w275/t1/indata/in
- root for output files -> /scratch/users/j/a/jabreu/flow_simple_remain_atoms/flow/w275/t1/outdata/out
 
 
 Symmetries : space group P4_2/m n m (#136); Bravais tP (primitive tetrag.)
================================================================================
 Values of the parameters that define the memory need of the present run (RF).
     intxc =       0      iscf =       7    lmnmax =      18     lnmax =       6
     mgfft =      64  mpssoang =       3    mqgrid =    3018     natom =       6
  nloc_mem =       1    nspden =       1   nspinor =       1    nsppol =       1
      nsym =      16    n1xccc =    2501    ntypat =       2    occopt =       1
   xclevel =       2
-    mband =          37        mffmem =           1         mkmem =           2
-   mkqmem =           2        mk1mem =           2           mpw =        9412
      nfft =      163840          nkpt =           2
================================================================================
P This job should need less than                     131.894 Mbytes of memory.
  Rough estimation (10% accuracy) of disk space for files :
_ WF disk file :     10.630 Mbytes ; DEN or POT disk file :      1.252 Mbytes.
================================================================================
 
--------------------------------------------------------------------------------
------------- Echo of variables that govern the present computation ------------
--------------------------------------------------------------------------------
-
- outvars: echo of selected default values                                      
-   iomode0 =  0 , fftalg0 =512 , wfoptalg0 =  0
-
- outvars: echo of global parameters not present in the input file              
-  max_nthreads =    0
-
 -outvars: echo values of preprocessed input variables --------
            acell      1.0000000000E+00  1.0000000000E+00  1.0000000000E+00 Bohr
              amu      2.07200000E+02  3.54527000E+01
             ecut      2.80000000E+01 Hartree
-          fftalg         512
           irdden           1
           irdwfk           1
           istwfk        0    1
              ixc     -116133
              kpt      0.00000000E+00  0.00000000E+00  2.27272727E-01
                       0.00000000E+00  0.00000000E+00  0.00000000E+00
           kptopt           0
P           mkmem           2
P          mkqmem           2
P          mk1mem           2
            natom           6
            nband          37
           nbdbuf           4
            ngfft          64      64      40
             nkpt           2
            nstep        2000
             nsym          16
           ntypat           2
              occ      2.000000  2.000000  2.000000  2.000000  2.000000  2.000000
                       2.000000  2.000000  2.000000  2.000000  2.000000  2.000000
                       2.000000  2.000000  2.000000  2.000000  2.000000  2.000000
                       2.000000  2.000000  2.000000  2.000000  2.000000  2.000000
                       2.000000  2.000000  2.000000  2.000000  0.000000  0.000000
                       0.000000  0.000000  0.000000  0.000000  0.000000  0.000000
                       0.000000
        optdriver           1
            prtwf          -1
            rfdir           1       1       1
           rfelfd           2
            rprim      1.2668178017E+01  0.0000000000E+00  0.0000000000E+00
                       0.0000000000E+00  1.2668178017E+01  0.0000000000E+00
                       0.0000000000E+00  0.0000000000E+00  8.2710666102E+00
          spgroup         136
           symrel      1  0  0   0  1  0   0  0  1      -1  0  0   0 -1  0   0  0 -1
                      -1  0  0   0  1  0   0  0 -1       1  0  0   0 -1  0   0  0  1
                      -1  0  0   0 -1  0   0  0  1       1  0  0   0  1  0   0  0 -1
                       1  0  0   0 -1  0   0  0 -1      -1  0  0   0  1  0   0  0  1
                       0  1  0   1  0  0   0  0  1       0 -1  0  -1  0  0   0  0 -1
                       0 -1  0   1  0  0   0  0 -1       0  1  0  -1  0  0   0  0  1
                       0 -1  0  -1  0  0   0  0  1       0  1  0   1  0  0   0  0 -1
                       0  1  0  -1  0  0   0  0 -1       0 -1  0   1  0  0   0  0  1
            tnons      0.0000000  0.0000000  0.0000000     0.0000000  0.0000000  0.0000000
                       0.5000000  0.5000000  0.5000000     0.5000000  0.5000000  0.5000000
                       0.0000000  0.0000000  0.0000000     0.0000000  0.0000000  0.0000000
                       0.5000000  0.5000000  0.5000000     0.5000000  0.5000000  0.5000000
                       0.0000000  0.0000000  0.0000000     0.0000000  0.0000000  0.0000000
                       0.5000000  0.5000000  0.5000000     0.5000000  0.5000000  0.5000000
                       0.0000000  0.0000000  0.0000000     0.0000000  0.0000000  0.0000000
                       0.5000000  0.5000000  0.5000000     0.5000000  0.5000000  0.5000000
           tolwfr      1.00000000E-20
            typat      1  1  2  2  2  2
           useylm           1
              wtk        0.50000    0.50000
           xangst      0.0000000000E+00  0.0000000000E+00  0.0000000000E+00
                       3.3518555403E+00  3.3518555403E+00  2.1884299704E+00
                       2.0280133798E+00  2.0280133798E+00  0.0000000000E+00
                       4.6756977009E+00  4.6756977009E+00  0.0000000000E+00
                       5.3798689202E+00  1.3238421605E+00  2.1884299704E+00
                       1.3238421605E+00  5.3798689202E+00  2.1884299704E+00
            xcart      0.0000000000E+00  0.0000000000E+00  0.0000000000E+00
                       6.3340890083E+00  6.3340890083E+00  4.1355333051E+00
                       3.8323898817E+00  3.8323898817E+00  0.0000000000E+00
                       8.8357881348E+00  8.8357881348E+00  0.0000000000E+00
                       1.0166478890E+01  2.5016991265E+00  4.1355333051E+00
                       2.5016991265E+00  1.0166478890E+01  4.1355333051E+00
             xred      0.0000000000E+00  0.0000000000E+00  0.0000000000E+00
                       5.0000000000E-01  5.0000000000E-01  5.0000000000E-01
                       3.0252100000E-01  3.0252100000E-01  0.0000000000E+00
                       6.9747900000E-01  6.9747900000E-01  0.0000000000E+00
                       8.0252100000E-01  1.9747900000E-01  5.0000000000E-01
                       1.9747900000E-01  8.0252100000E-01  5.0000000000E-01
            znucl       82.00000   17.00000
 
================================================================================
 
 chkinp: Checking input parameters for consistency.
 
================================================================================
== DATASET  1 ==================================================================
-   mpi_nproc: 1, omp_nthreads: -1 (-1 if OMP is not activated)
 

--- !DatasetInfo
iteration_state: {dtset: 1, }
dimensions: {natom: 6, nkpt: 2, mband: 37, nsppol: 1, nspinor: 1, nspden: 1, mpw: 9412, }
cutoff_energies: {ecut:  28.0, pawecutdg:  -1.0, }
electrons: {nelect:   5.60000000E+01, charge:   0.00000000E+00, occopt:   1.00000000E+00, tsmear:   1.00000000E-02, }
meta: {optdriver: 1, rfelfd: 2, }
...

 Real(R)+Recip(G) space primitive vectors, cartesian coordinates (Bohr,Bohr^-1):
 R(1)= 12.6681780  0.0000000  0.0000000  G(1)=  0.0789379  0.0000000  0.0000000
 R(2)=  0.0000000 12.6681780  0.0000000  G(2)=  0.0000000  0.0789379  0.0000000
 R(3)=  0.0000000  0.0000000  8.2710666  G(3)=  0.0000000  0.0000000  0.1209034
 Unit cell volume ucvol=  1.3273634E+03 bohr^3
 Angles (23,13,12)=  9.00000000E+01  9.00000000E+01  9.00000000E+01 degrees
 
 getcut: wavevector=  0.0000  0.0000  0.0000  ngfft=  64  64  40
         ecut(hartree)=     28.000   => boxcut(ratio)=   2.03027
 
--- Pseudopotential description ------------------------------------------------
- pspini: atom type   1  psp file is /scratch/users/j/a/jabreu/pseudos/PBEsol/Pb.psp8
- pspatm: opening atomic psp file    /scratch/users/j/a/jabreu/pseudos/PBEsol/Pb.psp8
- Pb    ONCVPSP-3.3.0  r_core=   2.42823   2.42823   2.10438
- 82.00000  14.00000    180112                znucl, zion, pspdat
    8 -116133    2    4       600   0.00000   pspcod,pspxc,lmax,lloc,mmax,r2well
    5.99000000000000    6.00000000000000    0.00000000000000   rchrg,fchrg,qchrg
     nproj     2     2     2
     extension_switch     1
  pspatm : epsatm=   44.32675151
         --- l  ekb(1:nproj) -->
             0    6.256780    1.206521
             1    4.272336    0.573876
             2   -3.251371   -0.847363
 pspatm: atomic psp has been read  and splines computed
 
- pspini: atom type   2  psp file is /scratch/users/j/a/jabreu/pseudos/PBEsol/Cl.psp8
- pspatm: opening atomic psp file    /scratch/users/j/a/jabreu/pseudos/PBEsol/Cl.psp8
- Cl    ONCVPSP-3.3.0  r_core=   1.56009   1.35202   1.75774
- 17.00000   7.00000    180112                znucl, zion, pspdat
    8 -116133    2    4       600   0.00000   pspcod,pspxc,lmax,lloc,mmax,r2well
    5.99000000000000    8.00000000000000    0.00000000000000   rchrg,fchrg,qchrg
     nproj     2     2     2
     extension_switch     1
  pspatm : epsatm=    8.95520722
         --- l  ekb(1:nproj) -->
             0    8.193503    0.707970
             1    3.869736    1.114731
             2   -2.915303   -0.810552
 pspatm: atomic psp has been read  and splines computed
 
   6.97056259E+03                                ecore*ucvol(ha*bohr**3)
--------------------------------------------------------------------------------
 
 
 ==>  initialize data related to q vector <== 
 
 The list of irreducible perturbations for this q vector is:
    1)    idir= 1    ipert=   7
    2)    idir= 2    ipert=   7
    3)    idir= 3    ipert=   7
 
================================================================================
 
--------------------------------------------------------------------------------
 Perturbation wavevector (in red.coord.)   0.000000  0.000000  0.000000
 Perturbation : derivative vs k along direction   1
 
 dfpt_looppert : COMMENT -
  In a d/dk calculation, iscf is set to -3 automatically.
 The set of symmetries contains only one element for this perturbation.
 symkpt : not enough symmetry to change the number of k points.
 
--------------------------------------------------------------------------------
 
--------------------------------------------------------------------------------
 
 Initialisation of the first-order wave-functions :
  ireadwf=   0

--- !BeginCycle
iteration_state: {dtset: 1, }
solver: {iscf: 7, nstep: 2000, nline: 4, wfoptalg: 0, }
tolerances: {tolwfr: 1.00E-20, }
...
 
     iter   2DEtotal(Ha)        deltaE(Ha) residm    vres2
-ETOT  1  -22.688706183831     -2.269E+01 4.873E-02 0.000E+00
 ETOT  2  -22.713118471894     -2.441E-02 1.595E-03 0.000E+00
 ETOT  3  -22.713227986256     -1.095E-04 2.522E-05 0.000E+00
 ETOT  4  -22.713228884221     -8.980E-07 9.243E-07 0.000E+00
 ETOT  5  -22.713228893322     -9.101E-09 1.692E-08 0.000E+00
 ETOT  6  -22.713228893422     -9.990E-11 7.896E-10 0.000E+00
 ETOT  7  -22.713228893423     -1.172E-12 1.811E-11 0.000E+00
 ETOT  8  -22.713228893423     -1.421E-14 8.281E-13 0.000E+00
 ETOT  9  -22.713228893423      3.553E-15 2.196E-14 0.000E+00
 ETOT 10  -22.713228893423     -1.421E-14 1.311E-15 0.000E+00
 ETOT 11  -22.713228893423      1.776E-14 2.873E-17 0.000E+00
 ETOT 12  -22.713228893423     -1.066E-14 2.115E-18 0.000E+00
 ETOT 13  -22.713228893423      0.000E+00 4.584E-20 0.000E+00
 ETOT 14  -22.713228893423      0.000E+00 9.897E-21 0.000E+00
 
 At SCF step   14   max residual=  9.90E-21 < tolwfr=  1.00E-20 =>converged.
================================================================================
 
 ----iterations are completed or convergence reached----
 
 dfpt_looppert: DFPT cycle converged with prtwf=-1. Will skip output of the 1st-order WFK file.
 dfpt_looppert : ek2=    2.7551766189E+01
          f-sum rule ratio=    1.0015353067E+00
 prteigrs : about to open file /scratch/users/j/a/jabreu/flow_simple_remain_atoms/flow/w275/t1/tmpdata/tmp_1WF1_EIG
 Expectation of eigenvalue derivatives (hartree) for nkpt=   2  k points:
  (in case of degenerate eigenvalues, averaged derivative)
 kpt#   1, nband= 37, wtk=  0.50000, kpt=  0.0000  0.0000  0.2273 (reduced coord)
  -0.00000   -0.00000   -0.00000   -0.00000    0.00000   -0.00000    0.00000    0.00000
  -0.00000   -0.00000    0.00000   -0.00000   -0.00000    0.00000    0.00000   -0.00000
  -0.00000   -0.00000   -0.00000    0.00000    0.00000    0.00000   -0.00000    0.00000
   0.00000   -0.00000   -0.00000   -0.00000    0.00000    0.00000   -0.00000   -0.00000
  -0.00000   -0.00000    0.00000    0.00000   -0.00598
 prteigrs : prtvol=0 or 1, do not print more k-points.
 
 
 Eight components of 2nd-order total energy (hartree) are
 1,2,3: 0th-order hamiltonian combined with 1st-order wavefunctions
     kin0=   2.58308327E+01 eigvalue=   3.38007053E+00  local=  -1.38979785E+01
 4,5,6: 1st-order hamiltonian combined with 1st and 0th-order wfs
     kin1=  -2.75940666E+01  Hartree=   0.00000000E+00     xc=   0.00000000E+00
 7,8,9: eventually, occupation + non-local contributions
    edocc=   4.31655194E+00     enl0=   3.08375218E+00   enl1=  -1.78323912E+01
 1-9 gives the relaxation energy (to be shifted if some occ is /=2.0)
   erelax=  -2.27132289E+01
  No Ewald or frozen-wf contrib.: the relaxation energy is the total one
 2DEtotal=   -0.2271322889E+02 Ha. Also 2DEtotal=   -0.618058390119E+03 eV
    (  non-var. 2DEtotal :   -2.2713228893E+01 Ha)
 
--------------------------------------------------------------------------------
 Perturbation wavevector (in red.coord.)   0.000000  0.000000  0.000000
 Perturbation : derivative vs k along direction   2
 The set of symmetries contains only one element for this perturbation.
 symkpt : not enough symmetry to change the number of k points.
 
--------------------------------------------------------------------------------
 
--------------------------------------------------------------------------------
 
 Initialisation of the first-order wave-functions :
  ireadwf=   0

--- !BeginCycle
iteration_state: {dtset: 1, }
solver: {iscf: 7, nstep: 2000, nline: 4, wfoptalg: 0, }
tolerances: {tolwfr: 1.00E-20, }
...
 
     iter   2DEtotal(Ha)        deltaE(Ha) residm    vres2
-ETOT  1  -22.688651267332     -2.269E+01 4.873E-02 0.000E+00
 ETOT  2  -22.713101867041     -2.445E-02 1.595E-03 0.000E+00
 ETOT  3  -22.713210797422     -1.089E-04 2.521E-05 0.000E+00
 ETOT  4  -22.713211680558     -8.831E-07 9.243E-07 0.000E+00
 ETOT  5  -22.713211689401     -8.843E-09 1.692E-08 0.000E+00
 ETOT  6  -22.713211689497     -9.602E-11 7.896E-10 0.000E+00
 ETOT  7  -22.713211689498     -1.137E-12 1.811E-11 0.000E+00
 ETOT  8  -22.713211689498     -1.421E-14 8.280E-13 0.000E+00
 ETOT  9  -22.713211689498     -3.908E-14 2.196E-14 0.000E+00
 ETOT 10  -22.713211689498      1.421E-14 1.311E-15 0.000E+00
 ETOT 11  -22.713211689498      0.000E+00 2.873E-17 0.000E+00
 ETOT 12  -22.713211689498     -3.553E-15 2.115E-18 0.000E+00
 ETOT 13  -22.713211689498      0.000E+00 4.584E-20 0.000E+00
 ETOT 14  -22.713211689498      0.000E+00 9.897E-21 0.000E+00
 
 At SCF step   14   max residual=  9.90E-21 < tolwfr=  1.00E-20 =>converged.
================================================================================
 
 ----iterations are completed or convergence reached----
 
 dfpt_looppert: DFPT cycle converged with prtwf=-1. Will skip output of the 1st-order WFK file.
 dfpt_looppert : ek2=    2.7551766189E+01
          f-sum rule ratio=    1.0015310071E+00
 prteigrs : about to open file /scratch/users/j/a/jabreu/flow_simple_remain_atoms/flow/w275/t1/tmpdata/tmp_1WF1_EIG
 Expectation of eigenvalue derivatives (hartree) for nkpt=   2  k points:
  (in case of degenerate eigenvalues, averaged derivative)
 kpt#   1, nband= 37, wtk=  0.50000, kpt=  0.0000  0.0000  0.2273 (reduced coord)
  -0.00000   -0.00000   -0.00000   -0.00000   -0.00000    0.00000   -0.00000    0.00000
  -0.00000   -0.00000    0.00000    0.00000    0.00000   -0.00000   -0.00000   -0.00000
  -0.00000    0.00000    0.00000   -0.00000   -0.00000   -0.00000    0.00000   -0.00000
  -0.00000    0.00000   -0.00000    0.00000    0.00000    0.00000    0.00000    0.00000
   0.00000   -0.00000    0.00000   -0.00000    0.00100
 prteigrs : prtvol=0 or 1, do not print more k-points.
 
 
 Eight components of 2nd-order total energy (hartree) are
 1,2,3: 0th-order hamiltonian combined with 1st-order wavefunctions
     kin0=   2.57874463E+01 eigvalue=   3.37354222E+00  local=  -1.38788416E+01
 4,5,6: 1st-order hamiltonian combined with 1st and 0th-order wfs
     kin1=  -2.75939481E+01  Hartree=   0.00000000E+00     xc=   0.00000000E+00
 7,8,9: eventually, occupation + non-local contributions
    edocc=   4.34006506E+00     enl0=   3.09099976E+00   enl1=  -1.78324752E+01
 1-9 gives the relaxation energy (to be shifted if some occ is /=2.0)
   erelax=  -2.27132117E+01
  No Ewald or frozen-wf contrib.: the relaxation energy is the total one
 2DEtotal=   -0.2271321169E+02 Ha. Also 2DEtotal=   -0.618057921976E+03 eV
    (  non-var. 2DEtotal :   -2.2713211689E+01 Ha)
 
--------------------------------------------------------------------------------
 Perturbation wavevector (in red.coord.)   0.000000  0.000000  0.000000
 Perturbation : derivative vs k along direction   3
 The set of symmetries contains only one element for this perturbation.
 symkpt : not enough symmetry to change the number of k points.
 
--------------------------------------------------------------------------------
 
--------------------------------------------------------------------------------
 
 Initialisation of the first-order wave-functions :
  ireadwf=   0

--- !BeginCycle
iteration_state: {dtset: 1, }
solver: {iscf: 7, nstep: 2000, nline: 4, wfoptalg: 0, }
tolerances: {tolwfr: 1.00E-20, }
...
 
     iter   2DEtotal(Ha)        deltaE(Ha) residm    vres2
-ETOT  1  -55.534772535749     -5.553E+01 4.616E-02 0.000E+00
 ETOT  2  -55.574627616084     -3.986E-02 4.760E-04 0.000E+00
 ETOT  3  -55.574795270546     -1.677E-04 4.933E-06 0.000E+00
 ETOT  4  -55.574796831677     -1.561E-06 6.484E-08 0.000E+00
 ETOT  5  -55.574796848762     -1.708E-08 2.778E-09 0.000E+00
 ETOT  6  -55.574796848957     -1.956E-10 4.205E-11 0.000E+00
 ETOT  7  -55.574796848959     -2.238E-12 2.121E-12 0.000E+00
 ETOT  8  -55.574796848959     -7.105E-15 5.306E-14 0.000E+00
 ETOT  9  -55.574796848959     -2.842E-14 3.059E-15 0.000E+00
 ETOT 10  -55.574796848960     -7.105E-15 1.255E-16 0.000E+00
 ETOT 11  -55.574796848959      2.842E-14 6.822E-18 0.000E+00
 ETOT 12  -55.574796848959     -1.421E-14 3.113E-19 0.000E+00
 ETOT 13  -55.574796848959     -7.105E-15 1.648E-20 0.000E+00
 ETOT 14  -55.574796848960     -7.105E-15 9.945E-21 0.000E+00
 
 At SCF step   14   max residual=  9.94E-21 < tolwfr=  1.00E-20 =>converged.
================================================================================
 
 ----iterations are completed or convergence reached----
 
 dfpt_looppert: DFPT cycle converged with prtwf=-1. Will skip output of the 1st-order WFK file.
 dfpt_looppert : ek2=    6.4633060727E+01
          f-sum rule ratio=    1.0673819234E+00
 prteigrs : about to open file /scratch/users/j/a/jabreu/flow_simple_remain_atoms/flow/w275/t1/tmpdata/tmp_1WF1_EIG
 Expectation of eigenvalue derivatives (hartree) for nkpt=   2  k points:
  (in case of degenerate eigenvalues, averaged derivative)
 kpt#   1, nband= 37, wtk=  0.50000, kpt=  0.0000  0.0000  0.2273 (reduced coord)
   0.01226   -0.01637   -0.01637   -0.00150    0.00333    0.00038    0.00463   -0.00002
  -0.00112   -0.00112    0.03718    0.03093    0.03093   -0.02391    0.01991   -0.14489
  -0.04349    0.03799    0.03799   -0.07146   -0.12550   -0.12550    0.04585   -0.02344
  -0.02344    0.10328   -0.04457   -0.00341    0.22461    0.22461    0.04344   -0.00612
  -0.00612   -0.08147    0.18685    0.07161   -0.18145
 prteigrs : prtvol=0 or 1, do not print more k-points.
 
 
 Eight components of 2nd-order total energy (hartree) are
 1,2,3: 0th-order hamiltonian combined with 1st-order wavefunctions
     kin0=   5.75316295E+01 eigvalue=   7.79120125E+00  local=  -3.08091157E+01
 4,5,6: 1st-order hamiltonian combined with 1st and 0th-order wfs
     kin1=  -6.89881607E+01  Hartree=   0.00000000E+00     xc=   0.00000000E+00
 7,8,9: eventually, occupation + non-local contributions
    edocc=   1.40401455E+01     enl0=   7.02093637E+00   enl1=  -4.21614330E+01
 1-9 gives the relaxation energy (to be shifted if some occ is /=2.0)
   erelax=  -5.55747968E+01
  No Ewald or frozen-wf contrib.: the relaxation energy is the total one
 2DEtotal=   -0.5557479685E+02 Ha. Also 2DEtotal=   -0.151226713000E+04 eV
    (  non-var. 2DEtotal :   -5.5574796849E+01 Ha)
 
 CALCULATION OF EFFECTIVE MASSES
 NOTE : Additional infos (eff. mass eigenvalues, eigenvectors and, if degenerate, average mass) are available in stdout.
 
--- !WARNING
src_file: m_efmas.F90
src_line: 0
message: |
    Effective masses calculations require given k-point(s) to be band extrema for given bands, but max abs gradient of band(s) was found to be greater than 1e-5. Abinit will continue anyway.
...
 

 K-point ( 0.000, 0.000, 0.227) | band =    28
 Effective mass tensor:
             -1.2305916551             -0.0002522284              0.0000280039
             -0.0002522284             -1.2304974596             -0.0000088751
              0.0000280039             -0.0000088751             -1.0454596321
 Effective mass tensor eigenvalues:
             -1.2308011466             -1.2302879727             -1.0454596274
 Angular average effective mass 1/(<1/m>)=  -1.1619737804
 Angular average effective mass for Frohlich model (<m**0.5>)**2=  -1.1640901121
 Effective masses along directions: (cart. coord. / red. coord. -> eff. mass)
    1:   1.000000  0.000000  0.000000 /   1.000000  0.000000  0.000000 ->  -1.2305916026
    2:   0.000000  1.000000  0.000000 /   0.000000  1.000000  0.000000 ->  -1.2304974078
    3:   0.000000  0.000000  1.000000 /   0.000000  0.000000  1.000000 ->  -1.0454596314
    4:   0.577350  0.577350  0.577350 /   0.641992  0.641992  0.419157 ->  -1.1621103505
    5:   0.000000  0.707107  0.707107 /   0.000000  0.837332  0.546695 ->  -1.1304654558
    6:   0.707107  0.000000  0.707107 /   0.837332  0.000000  0.546695 ->  -1.1304685628
    7:   0.707107  0.707107  0.000000 /   0.707107  0.707107  0.000000 ->  -1.2307967838

 COMMENTS: 
 - At k-point ( 0.000, 0.000, 0.000), bands    29 through    30
   are DEGENERATE (effective mass tensor is therefore not defined).
   See Section IIIB Eqs. (67)-(70) and Appendix E of PRB 93 205147 (2016).
 - Angular average effective mass for Frohlich model is to be averaged over degenerate bands. See later.
 - Associated theta integrals calculated with ntheta=   1000 points.

 K-point ( 0.000, 0.000, 0.000) | band =    29
 Transport equivalent effective mass tensor:
              1.0484209694             -0.0000037641             -0.0000009519
             -0.0000037641              1.0483781959             -0.0000018599
             -0.0000009519             -0.0000018599              0.3427903164
 Transport equivalent effective mass tensor eigenvalues:
              1.0484212982              1.0483778671              0.3427903164
 Angular average effective mass 1/(<1/m>)=   0.6206689948
 Angular average effective mass for Frohlich model (<m**0.5>)**2=   0.6819146975
 Effective masses along directions: (cart. coord. / red. coord. -> eff. mass)
    1:   1.000000  0.000000  0.000000 /   1.000000  0.000000  0.000000 ->   1.0706470869
    2:   0.000000  1.000000  0.000000 /   0.000000  1.000000  0.000000 ->   1.0706052208
    3:   0.000000  0.000000  1.000000 /   0.000000  0.000000  1.000000 ->   0.3420751599
    4:   0.577350  0.577350  0.577350 /   0.641992  0.641992  0.419157 ->   0.6149011687
    5:   0.000000  0.707107  0.707107 /   0.000000  0.837332  0.546695 ->   0.5184845319
    6:   0.707107  0.000000  0.707107 /   0.837332  0.000000  0.546695 ->   0.5184901250
    7:   0.707107  0.707107  0.000000 /   0.707107  0.707107  0.000000 ->   1.0227652686

 K-point ( 0.000, 0.000, 0.000) | band =    30
 Transport equivalent effective mass tensor:
              0.7983104856             -0.0000001046              0.0000000006
             -0.0000001046              0.7983113059             -0.0000000018
              0.0000000006             -0.0000000018              0.3424919664
 Transport equivalent effective mass tensor eigenvalues:
              0.7983113190              0.7983104724              0.3424919664
 Angular average effective mass 1/(<1/m>)=   0.5524323296
 Angular average effective mass for Frohlich model (<m**0.5>)**2=   0.5825777032
 Effective masses along directions: (cart. coord. / red. coord. -> eff. mass)
    1:   1.000000  0.000000  0.000000 /   1.000000  0.000000  0.000000 ->   0.7845322939
    2:   0.000000  1.000000  0.000000 /   0.000000  1.000000  0.000000 ->   0.7845322899
    3:   0.000000  0.000000  1.000000 /   0.000000  0.000000  1.000000 ->   0.3420751598
    4:   0.577350  0.577350  0.577350 /   0.641992  0.641992  0.419157 ->   0.5570809270
    5:   0.000000  0.707107  0.707107 /   0.000000  0.837332  0.546695 ->   0.4764197301
    6:   0.707107  0.000000  0.707107 /   0.837332  0.000000  0.546695 ->   0.4764197321
    7:   0.707107  0.707107  0.000000 /   0.707107  0.707107  0.000000 ->   0.8123873339

 Angular average effective mass for Frohlich model, averaged over degenerate bands.
 Value of     (<<m**0.5>>)**2 =     6.312692E-01
 Absolute Value of <<m**0.5>> =     7.945245E-01


 END OF EFFECTIVE MASSES SECTION

================================================================================
 
 ---- first-order wavefunction calculations are completed ----
 
 
 Total localisation tensor (bohr^2) in cartesian coordinates
  WARNING : still subject to testing - especially symmetries.
      direction              matrix element
   alpha     beta       real part   imaginary part
     1        1       1.1237606737    0.0000000000
     1        2       0.0000000000    0.0000000000
     1        3       0.0000000000    0.0000000000
     2        1       0.0000000000    0.0000000000
     2        2       1.1237576979    0.0000000000
     2        3       0.0000000000    0.0000000000
     3        1       0.0000000000    0.0000000000
     3        2       0.0000000000    0.0000000000
     3        3       1.3414234029    0.0000000000
 
 respfn : d/dk was computed, but no 2DTE, so no DDB output.
 
== END DATASET(S) ==============================================================
================================================================================
  
 -outvars: echo values of variables after computation  --------
            acell      1.0000000000E+00  1.0000000000E+00  1.0000000000E+00 Bohr
              amu      2.07200000E+02  3.54527000E+01
             ecut      2.80000000E+01 Hartree
           etotal     -5.5574796849E+01
            fcart      0.0000000000E+00  0.0000000000E+00  0.0000000000E+00
                       0.0000000000E+00  0.0000000000E+00  0.0000000000E+00
                       0.0000000000E+00  0.0000000000E+00  0.0000000000E+00
                       0.0000000000E+00  0.0000000000E+00  0.0000000000E+00
                       0.0000000000E+00  0.0000000000E+00  0.0000000000E+00
                       0.0000000000E+00  0.0000000000E+00  0.0000000000E+00
-          fftalg         512
           irdden           1
           irdwfk           1
           istwfk        0    1
              ixc     -116133
              kpt      0.00000000E+00  0.00000000E+00  2.27272727E-01
                       0.00000000E+00  0.00000000E+00  0.00000000E+00
           kptopt           0
P           mkmem           2
P          mkqmem           2
P          mk1mem           2
            natom           6
            nband          37
           nbdbuf           4
            ngfft          64      64      40
             nkpt           2
            nstep        2000
             nsym          16
           ntypat           2
              occ      2.000000  2.000000  2.000000  2.000000  2.000000  2.000000
                       2.000000  2.000000  2.000000  2.000000  2.000000  2.000000
                       2.000000  2.000000  2.000000  2.000000  2.000000  2.000000
                       2.000000  2.000000  2.000000  2.000000  2.000000  2.000000
                       2.000000  2.000000  2.000000  2.000000  0.000000  0.000000
                       0.000000  0.000000  0.000000  0.000000  0.000000  0.000000
                       0.000000
        optdriver           1
            prtwf          -1
            rfdir           1       1       1
           rfelfd           2
            rprim      1.2668178017E+01  0.0000000000E+00  0.0000000000E+00
                       0.0000000000E+00  1.2668178017E+01  0.0000000000E+00
                       0.0000000000E+00  0.0000000000E+00  8.2710666102E+00
          spgroup         136
           strten      0.0000000000E+00  0.0000000000E+00  0.0000000000E+00
                       0.0000000000E+00  0.0000000000E+00  0.0000000000E+00
           symrel      1  0  0   0  1  0   0  0  1      -1  0  0   0 -1  0   0  0 -1
                      -1  0  0   0  1  0   0  0 -1       1  0  0   0 -1  0   0  0  1
                      -1  0  0   0 -1  0   0  0  1       1  0  0   0  1  0   0  0 -1
                       1  0  0   0 -1  0   0  0 -1      -1  0  0   0  1  0   0  0  1
                       0  1  0   1  0  0   0  0  1       0 -1  0  -1  0  0   0  0 -1
                       0 -1  0   1  0  0   0  0 -1       0  1  0  -1  0  0   0  0  1
                       0 -1  0  -1  0  0   0  0  1       0  1  0   1  0  0   0  0 -1
                       0  1  0  -1  0  0   0  0 -1       0 -1  0   1  0  0   0  0  1
            tnons      0.0000000  0.0000000  0.0000000     0.0000000  0.0000000  0.0000000
                       0.5000000  0.5000000  0.5000000     0.5000000  0.5000000  0.5000000
                       0.0000000  0.0000000  0.0000000     0.0000000  0.0000000  0.0000000
                       0.5000000  0.5000000  0.5000000     0.5000000  0.5000000  0.5000000
                       0.0000000  0.0000000  0.0000000     0.0000000  0.0000000  0.0000000
                       0.5000000  0.5000000  0.5000000     0.5000000  0.5000000  0.5000000
                       0.0000000  0.0000000  0.0000000     0.0000000  0.0000000  0.0000000
                       0.5000000  0.5000000  0.5000000     0.5000000  0.5000000  0.5000000
           tolwfr      1.00000000E-20
            typat      1  1  2  2  2  2
           useylm           1
              wtk        0.50000    0.50000
           xangst      0.0000000000E+00  0.0000000000E+00  0.0000000000E+00
                       3.3518555403E+00  3.3518555403E+00  2.1884299704E+00
                       2.0280133798E+00  2.0280133798E+00  0.0000000000E+00
                       4.6756977009E+00  4.6756977009E+00  0.0000000000E+00
                       5.3798689202E+00  1.3238421605E+00  2.1884299704E+00
                       1.3238421605E+00  5.3798689202E+00  2.1884299704E+00
            xcart      0.0000000000E+00  0.0000000000E+00  0.0000000000E+00
                       6.3340890083E+00  6.3340890083E+00  4.1355333051E+00
                       3.8323898817E+00  3.8323898817E+00  0.0000000000E+00
                       8.8357881348E+00  8.8357881348E+00  0.0000000000E+00
                       1.0166478890E+01  2.5016991265E+00  4.1355333051E+00
                       2.5016991265E+00  1.0166478890E+01  4.1355333051E+00
             xred      0.0000000000E+00  0.0000000000E+00  0.0000000000E+00
                       5.0000000000E-01  5.0000000000E-01  5.0000000000E-01
                       3.0252100000E-01  3.0252100000E-01  0.0000000000E+00
                       6.9747900000E-01  6.9747900000E-01  0.0000000000E+00
                       8.0252100000E-01  1.9747900000E-01  5.0000000000E-01
                       1.9747900000E-01  8.0252100000E-01  5.0000000000E-01
            znucl       82.00000   17.00000
 
================================================================================


- Timing analysis has been suppressed with timopt=0



================================================================================

 Suggested references for the acknowledgment of ABINIT usage.

 The users of ABINIT have little formal obligations with respect to the ABINIT group
 (those specified in the GNU General Public License, http://www.gnu.org/copyleft/gpl.txt).
 However, it is common practice in the scientific literature,
 to acknowledge the efforts of people that have made the research possible.
 In this spirit, please find below suggested citations of work written by ABINIT developers,
 corresponding to implementations inside of ABINIT that you have used in the present run.
 Note also that it will be of great value to readers of publications presenting these results,
 to read papers enabling them to understand the theoretical formalism and details
 of the ABINIT implementation.
 For information on why they are suggested, see also https://docs.abinit.org/theory/acknowledgments.
-
- [1] Precise effective masses from density functional perturbation theory
- J. Laflamme Janssen, Y. Gillet, S. Ponce, A. Martin, M. Torrent, and X. Gonze. Phys. Rev. B 93, 205147 (2016)
- Comment: in case the DFPT prediction of effective masses is used.
- Strong suggestion to cite this paper in your publications.
- DOI and bibtex: see https://docs.abinit.org/theory/bibliography/#laflamme2016
-
- [2] Libxc: A library of exchange and correlation functionals for density functional theory.
- M.A.L. Marques, M.J.T. Oliveira, T. Burnus, Computer Physics Communications 183, 2227 (2012).
- Comment: to be cited when LibXC is used (negative value of ixc)
- Strong suggestion to cite this paper.
- DOI and bibtex: see https://docs.abinit.org/theory/bibliography/#marques2012
-
- [3] The Abinit project: Impact, environment and recent developments.
- Computer Phys. Comm. 248, 107042 (2020).
- X.Gonze, B. Amadon, G. Antonius, F.Arnardi, L.Baguet, J.-M.Beuken,
- J.Bieder, F.Bottin, J.Bouchet, E.Bousquet, N.Brouwer, F.Bruneval,
- G.Brunin, T.Cavignac, J.-B. Charraud, Wei Chen, M.Cote, S.Cottenier,
- J.Denier, G.Geneste, Ph.Ghosez, M.Giantomassi, Y.Gillet, O.Gingras,
- D.R.Hamann, G.Hautier, Xu He, N.Helbig, N.Holzwarth, Y.Jia, F.Jollet,
- W.Lafargue-Dit-Hauret, K.Lejaeghere, M.A.L.Marques, A.Martin, C.Martins,
- H.P.C. Miranda, F.Naccarato, K. Persson, G.Petretto, V.Planes, Y.Pouillon,
- S.Prokhorenko, F.Ricci, G.-M.Rignanese, A.H.Romero, M.M.Schmitt, M.Torrent,
- M.J.van Setten, B.Van Troeye, M.J.Verstraete, G.Zerah and J.W.Zwanzig
- Comment: the fifth generic paper describing the ABINIT project.
- Note that a version of this paper, that is not formatted for Computer Phys. Comm. 
- is available at https://www.abinit.org/sites/default/files/ABINIT20.pdf .
- The licence allows the authors to put it on the Web.
- DOI and bibtex: see https://docs.abinit.org/theory/bibliography/#gonze2020
-
- [4] First-principles responses of solids to atomic displacements and homogeneous electric fields:,
- implementation of a conjugate-gradient algorithm. X. Gonze, Phys. Rev. B55, 10337 (1997).
- Comment: Non-vanishing rfphon and/or rfelfd, in the norm-conserving case.
- DOI and bibtex: see https://docs.abinit.org/theory/bibliography/#gonze1997
-
- [5] Dynamical matrices, Born effective charges, dielectric permittivity tensors, and ,
- interatomic force constants from density-functional perturbation theory,
- X. Gonze and C. Lee, Phys. Rev. B55, 10355 (1997).
- Comment: Non-vanishing rfphon and/or rfelfd, in the norm-conserving case.
- DOI and bibtex: see https://docs.abinit.org/theory/bibliography/#gonze1997a
-
- [6] Optimized norm-conserving Vanderbilt pseudopotentials.
- D.R. Hamann, Phys. Rev. B 88, 085117 (2013).
- Comment: Some pseudopotential generated using the ONCVPSP code were used.
- DOI and bibtex: see https://docs.abinit.org/theory/bibliography/#hamann2013
-
- [7] ABINIT: Overview, and focus on selected capabilities
- J. Chem. Phys. 152, 124102 (2020).
- A. Romero, D.C. Allan, B. Amadon, G. Antonius, T. Applencourt, L.Baguet,
- J.Bieder, F.Bottin, J.Bouchet, E.Bousquet, F.Bruneval,
- G.Brunin, D.Caliste, M.Cote,
- J.Denier, C. Dreyer, Ph.Ghosez, M.Giantomassi, Y.Gillet, O.Gingras,
- D.R.Hamann, G.Hautier, F.Jollet, G. Jomard,
- A.Martin, 
- H.P.C. Miranda, F.Naccarato, G.Petretto, N.A. Pike, V.Planes,
- S.Prokhorenko, T. Rangel, F.Ricci, G.-M.Rignanese, M.Royo, M.Stengel, M.Torrent,
- M.J.van Setten, B.Van Troeye, M.J.Verstraete, J.Wiktor, J.W.Zwanziger, and X.Gonze.
- Comment: a global overview of ABINIT, with focus on selected capabilities .
- Note that a version of this paper, that is not formatted for J. Chem. Phys 
- is available at https://www.abinit.org/sites/default/files/ABINIT20_JPC.pdf .
- The licence allows the authors to put it on the Web.
- DOI and bibtex: see https://docs.abinit.org/theory/bibliography/#romero2020
-
- [8] Recent developments in the ABINIT software package.
- Computer Phys. Comm. 205, 106 (2016).
- X.Gonze, F.Jollet, F.Abreu Araujo, D.Adams, B.Amadon, T.Applencourt,
- C.Audouze, J.-M.Beuken, J.Bieder, A.Bokhanchuk, E.Bousquet, F.Bruneval
- D.Caliste, M.Cote, F.Dahm, F.Da Pieve, M.Delaveau, M.Di Gennaro,
- B.Dorado, C.Espejo, G.Geneste, L.Genovese, A.Gerossier, M.Giantomassi,
- Y.Gillet, D.R.Hamann, L.He, G.Jomard, J.Laflamme Janssen, S.Le Roux,
- A.Levitt, A.Lherbier, F.Liu, I.Lukacevic, A.Martin, C.Martins,
- M.J.T.Oliveira, S.Ponce, Y.Pouillon, T.Rangel, G.-M.Rignanese,
- A.H.Romero, B.Rousseau, O.Rubel, A.A.Shukri, M.Stankovski, M.Torrent,
- M.J.Van Setten, B.Van Troeye, M.J.Verstraete, D.Waroquier, J.Wiktor,
- B.Xu, A.Zhou, J.W.Zwanziger.
- Comment: the fourth generic paper describing the ABINIT project.
- Note that a version of this paper, that is not formatted for Computer Phys. Comm. 
- is available at https://www.abinit.org/sites/default/files/ABINIT16.pdf .
- The licence allows the authors to put it on the Web.
- DOI and bibtex: see https://docs.abinit.org/theory/bibliography/#gonze2016
-
- Proc.   0 individual time (sec): cpu=        106.3  wall=        113.1
 
================================================================================
 
 Calculation completed.
.Delivered   4 WARNINGs and   5 COMMENTs to log file.
+Overall time at end (sec) : cpu=        106.3  wall=        113.1
