
.Version 9.5.1 of ABINIT 
.(MPI version, prepared for a x86_64_linux_intel19.1 computer) 

.Copyright (C) 1998-2021 ABINIT group . 
 ABINIT comes with ABSOLUTELY NO WARRANTY.
 It is free software, and you are welcome to redistribute it
 under certain conditions (GNU General Public License,
 see ~abinit/COPYING or http://www.gnu.org/copyleft/gpl.txt).

 ABINIT is a project of the Universite Catholique de Louvain,
 Corning Inc. and other collaborators, see ~abinit/doc/developers/contributors.txt .
 Please read https://docs.abinit.org/theory/acknowledgments for suggested
 acknowledgments of the ABINIT effort.
 For more information, see https://www.abinit.org .

.Starting date : Thu 29 Apr 2021.
- ( at 18h22 )
  
- input  file    -> /scratch/users/j/a/jabreu/flow_simple_5atoms/flow/w168/t1/run.abi
- output file    -> /scratch/users/j/a/jabreu/flow_simple_5atoms/flow/w168/t1/run.abo
- root for input  files -> /scratch/users/j/a/jabreu/flow_simple_5atoms/flow/w168/t1/indata/in
- root for output files -> /scratch/users/j/a/jabreu/flow_simple_5atoms/flow/w168/t1/outdata/out
 
 
 Symmetries : space group P-3 m 1 (#164); Bravais hP (primitive hexag.)
================================================================================
 Values of the parameters that define the memory need of the present run (RF).
     intxc =       0      iscf =       7    lmnmax =      18     lnmax =       6
     mgfft =      90  mpssoang =       3    mqgrid =    4273     natom =       5
  nloc_mem =       1    nspden =       1   nspinor =       1    nsppol =       1
      nsym =      12    n1xccc =    2501    ntypat =       3    occopt =       1
   xclevel =       2
-    mband =          39        mffmem =           1         mkmem =           2
-   mkqmem =           2        mk1mem =           2           mpw =       13002
      nfft =      262440          nkpt =           2
================================================================================
P This job should need less than                     165.901 Mbytes of memory.
  Rough estimation (10% accuracy) of disk space for files :
_ WF disk file :     15.477 Mbytes ; DEN or POT disk file :      2.004 Mbytes.
================================================================================
 
--------------------------------------------------------------------------------
------------- Echo of variables that govern the present computation ------------
--------------------------------------------------------------------------------
-
- outvars: echo of selected default values                                      
-   iomode0 =  0 , fftalg0 =512 , wfoptalg0 =  0
-
- outvars: echo of global parameters not present in the input file              
-  max_nthreads =    0
-
 -outvars: echo values of preprocessed input variables --------
            acell      1.0000000000E+00  1.0000000000E+00  1.0000000000E+00 Bohr
              amu      8.76200000E+01  2.43050000E+01  1.21753000E+02
             ecut      4.20000000E+01 Hartree
-          fftalg         512
           irdden           1
           irdwfk           1
           istwfk        1    1
              ixc     -116133
              kpt      0.00000000E+00  0.00000000E+00  0.00000000E+00
                       5.00000000E-01  0.00000000E+00  0.00000000E+00
           kptopt           0
P           mkmem           2
P          mkqmem           2
P          mk1mem           2
            natom           5
            nband          39
           nbdbuf           4
            ngfft          54      54      90
             nkpt           2
            nstep         100
             nsym          12
           ntypat           3
              occ      2.000000  2.000000  2.000000  2.000000  2.000000  2.000000
                       2.000000  2.000000  2.000000  2.000000  2.000000  2.000000
                       2.000000  2.000000  2.000000  2.000000  2.000000  2.000000
                       2.000000  2.000000  2.000000  2.000000  2.000000  2.000000
                       2.000000  2.000000  2.000000  2.000000  2.000000  2.000000
                       0.000000  0.000000  0.000000  0.000000  0.000000  0.000000
                       0.000000  0.000000  0.000000
        optdriver           1
            prtwf          -1
            rfdir           1       1       1
           rfelfd           2
            rprim      8.8751679839E+00  0.0000000000E+00  0.0000000000E+00
                      -4.4375839919E+00  7.6861209369E+00  0.0000000000E+00
                       0.0000000000E+00  0.0000000000E+00  1.4643912569E+01
          spgroup         164
           symrel      1  0  0   0  1  0   0  0  1      -1  0  0   0 -1  0   0  0 -1
                      -1  0  0   1  1  0   0  0  1       1  0  0  -1 -1  0   0  0 -1
                       0  1  0  -1 -1  0   0  0  1       0 -1  0   1  1  0   0  0 -1
                       0 -1  0  -1  0  0   0  0  1       0  1  0   1  0  0   0  0 -1
                      -1 -1  0   1  0  0   0  0  1       1  1  0  -1  0  0   0  0 -1
                       1  1  0   0 -1  0   0  0  1      -1 -1  0   0  1  0   0  0 -1
           tolwfr      1.00000000E-20
            typat      1  2  2  3  3
           useylm           1
              wtk        0.50000    0.50000
           xangst      0.0000000000E+00  0.0000000000E+00  0.0000000000E+00
                       2.3482683098E+00  1.3557733408E+00  2.8780155865E+00
                       1.7639241746E-11  2.7115466815E+00  4.8712091896E+00
                       1.7639241746E-11  2.7115466815E+00  1.9676831552E+00
                       2.3482683098E+00  1.3557733408E+00  5.7815416210E+00
            xcart      0.0000000000E+00  0.0000000000E+00  0.0000000000E+00
                       4.4375839920E+00  2.5620403123E+00  5.4386612647E+00
                       3.3333336091E-11  5.1240806246E+00  9.2052513044E+00
                       3.3333336091E-11  5.1240806246E+00  3.7183822795E+00
                       4.4375839920E+00  2.5620403123E+00  1.0925530290E+01
             xred      0.0000000000E+00  0.0000000000E+00  0.0000000000E+00
                       6.6666666667E-01  3.3333333333E-01  3.7139400000E-01
                       3.3333333333E-01  6.6666666667E-01  6.2860600000E-01
                       3.3333333333E-01  6.6666666667E-01  2.5392000000E-01
                       6.6666666667E-01  3.3333333333E-01  7.4608000000E-01
            znucl       38.00000   12.00000   51.00000
 
================================================================================
 
 chkinp: Checking input parameters for consistency.
 
================================================================================
== DATASET  1 ==================================================================
-   mpi_nproc: 1, omp_nthreads: -1 (-1 if OMP is not activated)
 

--- !DatasetInfo
iteration_state: {dtset: 1, }
dimensions: {natom: 5, nkpt: 2, mband: 39, nsppol: 1, nspinor: 1, nspden: 1, mpw: 13002, }
cutoff_energies: {ecut:  42.0, pawecutdg:  -1.0, }
electrons: {nelect:   6.00000000E+01, charge:   0.00000000E+00, occopt:   1.00000000E+00, tsmear:   1.00000000E-02, }
meta: {optdriver: 1, rfelfd: 2, }
...

 Real(R)+Recip(G) space primitive vectors, cartesian coordinates (Bohr,Bohr^-1):
 R(1)=  8.8751680  0.0000000  0.0000000  G(1)=  0.1126739  0.0650523  0.0000000
 R(2)= -4.4375840  7.6861209  0.0000000  G(2)=  0.0000000  0.1301046  0.0000000
 R(3)=  0.0000000  0.0000000 14.6439126  G(3)=  0.0000000  0.0000000  0.0682878
 Unit cell volume ucvol=  9.9894349E+02 bohr^3
 Angles (23,13,12)=  9.00000000E+01  9.00000000E+01  1.20000000E+02 degrees
 
 getcut: wavevector=  0.0000  0.0000  0.0000  ngfft=  54  54  90
         ecut(hartree)=     42.000   => boxcut(ratio)=   2.08606
 
--- Pseudopotential description ------------------------------------------------
- pspini: atom type   1  psp file is /scratch/users/j/a/jabreu/pseudos/PBEsol/Sr.psp8
- pspatm: opening atomic psp file    /scratch/users/j/a/jabreu/pseudos/PBEsol/Sr.psp8
- Sr    ONCVPSP-3.3.0  r_core=   1.66721   1.31335   1.51547
- 38.00000  10.00000    180112                znucl, zion, pspdat
    8 -116133    2    4       600   0.00000   pspcod,pspxc,lmax,lloc,mmax,r2well
    5.99000000000000    6.00000000000000    0.00000000000000   rchrg,fchrg,qchrg
     nproj     2     2     2
     extension_switch     1
  pspatm : epsatm=   12.46450977
         --- l  ekb(1:nproj) -->
             0   10.029206    1.044171
             1    7.472414    1.670829
             2    4.142950    0.968140
 pspatm: atomic psp has been read  and splines computed
 
- pspini: atom type   2  psp file is /scratch/users/j/a/jabreu/pseudos/PBEsol/Mg.psp8
- pspatm: opening atomic psp file    /scratch/users/j/a/jabreu/pseudos/PBEsol/Mg.psp8
- Mg    ONCVPSP-3.3.0  r_core=   1.16056   1.56380
- 12.00000  10.00000    180112                znucl, zion, pspdat
    8 -116133    1    4       400   0.00000   pspcod,pspxc,lmax,lloc,mmax,r2well
    3.99000000000000    0.00000000000000    0.00000000000000   rchrg,fchrg,qchrg
     nproj     2     2
     extension_switch     1
  pspatm : epsatm=    9.18164846
         --- l  ekb(1:nproj) -->
             0    2.230603   -0.826587
             1   -6.503151   -2.501445
 pspatm: atomic psp has been read  and splines computed
 
- pspini: atom type   3  psp file is /scratch/users/j/a/jabreu/pseudos/PBEsol/Sb.psp8
- pspatm: opening atomic psp file    /scratch/users/j/a/jabreu/pseudos/PBEsol/Sb.psp8
- Sb    ONCVPSP-3.3.0  r_core=   1.81962   2.12485   1.81962
- 51.00000  15.00000    180112                znucl, zion, pspdat
    8 -116133    2    4       600   0.00000   pspcod,pspxc,lmax,lloc,mmax,r2well
    5.99000000000000    5.00000000000000    0.00000000000000   rchrg,fchrg,qchrg
     nproj     2     2     2
     extension_switch     1
  pspatm : epsatm=   26.35641246
         --- l  ekb(1:nproj) -->
             0    9.727814    1.485032
             1    5.505335    0.704623
             2   -4.710637   -1.436443
 pspatm: atomic psp has been read  and splines computed
 
   5.01243790E+03                                ecore*ucvol(ha*bohr**3)
--------------------------------------------------------------------------------
 
-inwffil : will read wavefunctions from disk file /scratch/users/j/a/jabreu/flow_simple_5atoms/flow/w168/t1/indata/in_WFK
 
 ==>  initialize data related to q vector <== 
 
 The list of irreducible perturbations for this q vector is:
    1)    idir= 1    ipert=   6
    2)    idir= 2    ipert=   6
    3)    idir= 3    ipert=   6
 
================================================================================
 
--------------------------------------------------------------------------------
 Perturbation wavevector (in red.coord.)   0.000000  0.000000  0.000000
 Perturbation : derivative vs k along direction   1
 
 dfpt_looppert : COMMENT -
  In a d/dk calculation, iscf is set to -3 automatically.
 The set of symmetries contains only one element for this perturbation.
 symkpt : not enough symmetry to change the number of k points.
 
--------------------------------------------------------------------------------
 
-inwffil : will read wavefunctions from disk file /scratch/users/j/a/jabreu/flow_simple_5atoms/flow/w168/t1/indata/in_WFK
--------------------------------------------------------------------------------
 
 Initialisation of the first-order wave-functions :
  ireadwf=   0

--- !BeginCycle
iteration_state: {dtset: 1, }
solver: {iscf: 7, nstep: 100, nline: 4, wfoptalg: 0, }
tolerances: {tolwfr: 1.00E-20, }
...
 
     iter   2DEtotal(Ha)        deltaE(Ha) residm    vres2
-ETOT  1  -75.550271280960     -7.555E+01 5.277E-02 0.000E+00
 ETOT  2  -75.583146537846     -3.288E-02 2.332E-03 0.000E+00
 ETOT  3  -75.583179016515     -3.248E-05 8.056E-05 0.000E+00
 ETOT  4  -75.583179154053     -1.375E-07 5.432E-06 0.000E+00
 ETOT  5  -75.583179154936     -8.829E-10 2.054E-07 0.000E+00
 ETOT  6  -75.583179154943     -6.310E-12 1.553E-08 0.000E+00
 ETOT  7  -75.583179154943      5.684E-14 5.941E-10 0.000E+00
 ETOT  8  -75.583179154943     -8.527E-14 4.687E-11 0.000E+00
 ETOT  9  -75.583179154943      1.421E-14 1.772E-12 0.000E+00
 ETOT 10  -75.583179154943      4.263E-14 1.447E-13 0.000E+00
 ETOT 11  -75.583179154943     -2.842E-14 5.383E-15 0.000E+00
 ETOT 12  -75.583179154943      1.421E-14 7.017E-16 0.000E+00
 ETOT 13  -75.583179154943     -1.421E-14 1.681E-17 0.000E+00
 ETOT 14  -75.583179154943      0.000E+00 3.732E-18 0.000E+00
 ETOT 15  -75.583179154943      2.842E-14 1.134E-19 0.000E+00
 ETOT 16  -75.583179154943      0.000E+00 2.628E-20 0.000E+00
 ETOT 17  -75.583179154943     -1.421E-14 9.947E-21 0.000E+00
 
 At SCF step   17   max residual=  9.95E-21 < tolwfr=  1.00E-20 =>converged.
================================================================================
 
 ----iterations are completed or convergence reached----
 
 dfpt_looppert: DFPT cycle converged with prtwf=-1. Will skip output of the 1st-order WFK file.
 dfpt_looppert : ek2=    8.0191171050E+01
          f-sum rule ratio=    1.2120725855E+00
 prteigrs : about to open file /scratch/users/j/a/jabreu/flow_simple_5atoms/flow/w168/t1/tmpdata/tmp_1WF1_EIG
 Expectation of eigenvalue derivatives (hartree) for nkpt=   2  k points:
  (in case of degenerate eigenvalues, averaged derivative)
 kpt#   1, nband= 39, wtk=  0.50000, kpt=  0.0000  0.0000  0.0000 (reduced coord)
  -0.00000   -0.00000   -0.00000   -0.00000   -0.00000   -0.00000   -0.00000   -0.00000
   0.00000    0.00000    0.00000    0.00000    0.00000   -0.00000   -0.00000   -0.00000
  -0.00000   -0.00000   -0.00000    0.00000    0.00000    0.00000   -0.00000    0.00000
   0.00000    0.00000    0.00000   -0.00000   -0.00000    0.00000   -0.00000   -0.00000
  -0.00000    0.00000    0.00000    0.00000    0.00000    0.00000    0.00000
 prteigrs : prtvol=0 or 1, do not print more k-points.
 
 
 Eight components of 2nd-order total energy (hartree) are
 1,2,3: 0th-order hamiltonian combined with 1st-order wavefunctions
     kin0=   7.22016278E+01 eigvalue=   1.26382813E+01  local=  -4.10606087E+01
 4,5,6: 1st-order hamiltonian combined with 1st and 0th-order wfs
     kin1=  -9.71975200E+01  Hartree=   0.00000000E+00     xc=   0.00000000E+00
 7,8,9: eventually, occupation + non-local contributions
    edocc=   2.11001134E+01     enl0=   1.07037654E+01   enl1=  -5.39688383E+01
 1-9 gives the relaxation energy (to be shifted if some occ is /=2.0)
   erelax=  -7.55831792E+01
  No Ewald or frozen-wf contrib.: the relaxation energy is the total one
 2DEtotal=   -0.7558317915E+02 Ha. Also 2DEtotal=   -0.205672290134E+04 eV
    (  non-var. 2DEtotal :   -7.5583179155E+01 Ha)
 
--------------------------------------------------------------------------------
 Perturbation wavevector (in red.coord.)   0.000000  0.000000  0.000000
 Perturbation : derivative vs k along direction   2
 The set of symmetries contains only one element for this perturbation.
 symkpt : not enough symmetry to change the number of k points.
 
--------------------------------------------------------------------------------
 
-inwffil : will read wavefunctions from disk file /scratch/users/j/a/jabreu/flow_simple_5atoms/flow/w168/t1/indata/in_WFK
--------------------------------------------------------------------------------
 
 Initialisation of the first-order wave-functions :
  ireadwf=   0

--- !BeginCycle
iteration_state: {dtset: 1, }
solver: {iscf: 7, nstep: 100, nline: 4, wfoptalg: 0, }
tolerances: {tolwfr: 1.00E-20, }
...
 
     iter   2DEtotal(Ha)        deltaE(Ha) residm    vres2
-ETOT  1  -80.820870687795     -8.082E+01 4.814E-01 0.000E+00
 ETOT  2  -80.859031861343     -3.816E-02 3.676E-02 0.000E+00
 ETOT  3  -80.859068212565     -3.635E-05 3.473E-03 0.000E+00
 ETOT  4  -80.859068362646     -1.501E-07 3.859E-04 0.000E+00
 ETOT  5  -80.859068363676     -1.031E-09 4.697E-05 0.000E+00
 ETOT  6  -80.859068363684     -8.299E-12 6.107E-06 0.000E+00
 ETOT  7  -80.859068363684     -2.842E-14 7.543E-07 0.000E+00
 ETOT  8  -80.859068363684      1.563E-13 1.020E-07 0.000E+00
 ETOT  9  -80.859068363684     -1.563E-13 1.252E-08 0.000E+00
 ETOT 10  -80.859068363684      2.842E-14 1.741E-09 0.000E+00
 ETOT 11  -80.859068363684     -2.842E-14 2.119E-10 0.000E+00
 ETOT 12  -80.859068363684      2.842E-14 3.012E-11 0.000E+00
 ETOT 13  -80.859068363684      0.000E+00 3.633E-12 0.000E+00
 ETOT 14  -80.859068363684      0.000E+00 5.260E-13 0.000E+00
 ETOT 15  -80.859068363684      0.000E+00 6.293E-14 0.000E+00
 ETOT 16  -80.859068363684      0.000E+00 9.249E-15 0.000E+00
 ETOT 17  -80.859068363684     -2.842E-14 1.099E-15 0.000E+00
 ETOT 18  -80.859068363684      0.000E+00 1.635E-16 0.000E+00
 ETOT 19  -80.859068363684      2.842E-14 1.931E-17 0.000E+00
 ETOT 20  -80.859068363684      0.000E+00 2.902E-18 0.000E+00
 ETOT 21  -80.859068363684      0.000E+00 3.412E-19 0.000E+00
 ETOT 22  -80.859068363684     -2.842E-14 5.170E-20 0.000E+00
 ETOT 23  -80.859068363684      2.842E-14 9.916E-21 0.000E+00
 
 At SCF step   23   max residual=  9.92E-21 < tolwfr=  1.00E-20 =>converged.
================================================================================
 
 ----iterations are completed or convergence reached----
 
 dfpt_looppert: DFPT cycle converged with prtwf=-1. Will skip output of the 1st-order WFK file.
 dfpt_looppert : ek2=    8.0191171051E+01
          f-sum rule ratio=    1.3374481944E+00
 prteigrs : about to open file /scratch/users/j/a/jabreu/flow_simple_5atoms/flow/w168/t1/tmpdata/tmp_1WF1_EIG
 Expectation of eigenvalue derivatives (hartree) for nkpt=   2  k points:
  (in case of degenerate eigenvalues, averaged derivative)
 kpt#   1, nband= 39, wtk=  0.50000, kpt=  0.0000  0.0000  0.0000 (reduced coord)
  -0.00000    0.00000   -0.00000    0.00000    0.00000   -0.00000   -0.00000   -0.00000
   0.00000   -0.00000   -0.00000    0.00000    0.00000   -0.00000   -0.00000    0.00000
   0.00000    0.00000    0.00000    0.00000    0.00000    0.00000    0.00000   -0.00000
   0.00000   -0.00000   -0.00000   -0.00000   -0.00000    0.00000   -0.00000    0.00000
  -0.00000    0.00000    0.00000    0.00000    0.00000    0.00000    0.00000
 prteigrs : prtvol=0 or 1, do not print more k-points.
 
 
 Eight components of 2nd-order total energy (hartree) are
 1,2,3: 0th-order hamiltonian combined with 1st-order wavefunctions
     kin0=   7.10871662E+01 eigvalue=   1.26765492E+01  local=  -4.04636863E+01
 4,5,6: 1st-order hamiltonian combined with 1st and 0th-order wfs
     kin1=  -1.07251537E+02  Hartree=   0.00000000E+00     xc=   0.00000000E+00
 7,8,9: eventually, occupation + non-local contributions
    edocc=   2.67528249E+01     enl0=   1.08062144E+01   enl1=  -5.44665998E+01
 1-9 gives the relaxation energy (to be shifted if some occ is /=2.0)
   erelax=  -8.08590684E+01
  No Ewald or frozen-wf contrib.: the relaxation energy is the total one
 2DEtotal=   -0.8085906836E+02 Ha. Also 2DEtotal=   -0.220028714781E+04 eV
    (  non-var. 2DEtotal :   -8.0859068364E+01 Ha)
 
--------------------------------------------------------------------------------
 Perturbation wavevector (in red.coord.)   0.000000  0.000000  0.000000
 Perturbation : derivative vs k along direction   3
 The set of symmetries contains only one element for this perturbation.
 symkpt : not enough symmetry to change the number of k points.
 
--------------------------------------------------------------------------------
 
-inwffil : will read wavefunctions from disk file /scratch/users/j/a/jabreu/flow_simple_5atoms/flow/w168/t1/indata/in_WFK
--------------------------------------------------------------------------------
 
 Initialisation of the first-order wave-functions :
  ireadwf=   0

--- !BeginCycle
iteration_state: {dtset: 1, }
solver: {iscf: 7, nstep: 100, nline: 4, wfoptalg: 0, }
tolerances: {tolwfr: 1.00E-20, }
...
 
     iter   2DEtotal(Ha)        deltaE(Ha) residm    vres2
-ETOT  1  -19.772369066294     -1.977E+01 3.766E-02 0.000E+00
 ETOT  2  -19.781358140801     -8.989E-03 1.502E-03 0.000E+00
 ETOT  3  -19.781367374891     -9.234E-06 5.144E-05 0.000E+00
 ETOT  4  -19.781367411401     -3.651E-08 4.662E-06 0.000E+00
 ETOT  5  -19.781367411630     -2.292E-10 2.111E-07 0.000E+00
 ETOT  6  -19.781367411632     -1.741E-12 2.875E-08 0.000E+00
 ETOT  7  -19.781367411632     -1.776E-14 1.377E-09 0.000E+00
 ETOT  8  -19.781367411632      3.553E-15 1.894E-10 0.000E+00
 ETOT  9  -19.781367411632     -2.132E-14 9.130E-12 0.000E+00
 ETOT 10  -19.781367411632     -7.105E-15 1.277E-12 0.000E+00
 ETOT 11  -19.781367411632      0.000E+00 7.868E-14 0.000E+00
 ETOT 12  -19.781367411632      0.000E+00 1.117E-14 0.000E+00
 ETOT 13  -19.781367411632      0.000E+00 7.573E-16 0.000E+00
 ETOT 14  -19.781367411632      3.553E-15 1.040E-16 0.000E+00
 ETOT 15  -19.781367411632     -3.553E-15 7.227E-18 0.000E+00
 ETOT 16  -19.781367411632      7.105E-15 1.002E-18 0.000E+00
 ETOT 17  -19.781367411632     -3.553E-15 7.009E-20 0.000E+00
 ETOT 18  -19.781367411632     -3.553E-15 9.455E-21 0.000E+00
 
 At SCF step   18   max residual=  9.46E-21 < tolwfr=  1.00E-20 =>converged.
================================================================================
 
 ----iterations are completed or convergence reached----
 
 dfpt_looppert: DFPT cycle converged with prtwf=-1. Will skip output of the 1st-order WFK file.
 dfpt_looppert : ek2=    2.2091577471E+01
          f-sum rule ratio=    1.1202897069E+00
 prteigrs : about to open file /scratch/users/j/a/jabreu/flow_simple_5atoms/flow/w168/t1/tmpdata/tmp_1WF1_EIG
 Expectation of eigenvalue derivatives (hartree) for nkpt=   2  k points:
  (in case of degenerate eigenvalues, averaged derivative)
 kpt#   1, nband= 39, wtk=  0.50000, kpt=  0.0000  0.0000  0.0000 (reduced coord)
   0.00000   -0.00000   -0.00000    0.00000    0.00000    0.00000    0.00000    0.00000
  -0.00000    0.00000    0.00000   -0.00000   -0.00000    0.00000    0.00000    0.00000
   0.00000    0.00000    0.00000   -0.00000   -0.00000   -0.00000   -0.00000   -0.00000
  -0.00000    0.00000    0.00000    0.00000    0.00000    0.00000   -0.00000   -0.00000
  -0.00000    0.00000    0.00000   -0.00000   -0.00000    0.00000    0.00000
 prteigrs : prtvol=0 or 1, do not print more k-points.
 
 
 Eight components of 2nd-order total energy (hartree) are
 1,2,3: 0th-order hamiltonian combined with 1st-order wavefunctions
     kin0=   2.06792985E+01 eigvalue=   3.45149569E+00  local=  -1.18926986E+01
 4,5,6: 1st-order hamiltonian combined with 1st and 0th-order wfs
     kin1=  -2.47489669E+01  Hartree=   0.00000000E+00     xc=   0.00000000E+00
 7,8,9: eventually, occupation + non-local contributions
    edocc=   4.56183536E+00     enl0=   2.98143640E+00   enl1=  -1.48137680E+01
 1-9 gives the relaxation energy (to be shifted if some occ is /=2.0)
   erelax=  -1.97813674E+01
  No Ewald or frozen-wf contrib.: the relaxation energy is the total one
 2DEtotal=   -0.1978136741E+02 Ha. Also 2DEtotal=   -0.538278381914E+03 eV
    (  non-var. 2DEtotal :   -1.9781367412E+01 Ha)
 
 CALCULATION OF EFFECTIVE MASSES
 NOTE : Additional infos (eff. mass eigenvalues, eigenvectors and, if degenerate, average mass) are available in stdout.

 K-point ( 0.000, 0.000, 0.000) | band =    30
 Effective mass tensor:
             -0.6121110151              0.0000000002             -0.0000000001
              0.0000000002             -0.6121110153             -0.0000000001
             -0.0000000001             -0.0000000001             -0.0896475384
 Effective mass tensor eigenvalues:
             -0.6121110154             -0.6121110150             -0.0896475384
 Angular average effective mass 1/(<1/m>)=  -0.2080129770
 Angular average effective mass for Frohlich model (<m**0.5>)**2=  -0.2738922046
 Effective masses along directions: (cart. coord. / red. coord. -> eff. mass)
    1:   1.000000  0.000000  0.000000 /   0.894427 -0.447214  0.000000 ->  -0.6121110151
    2:   0.000000  1.000000  0.000000 /   0.000000  1.000000  0.000000 ->  -0.6121110153
    3:   0.000000  0.000000  1.000000 /   0.000000  0.000000  1.000000 ->  -0.0896475384
    4:   0.577350  0.577350  0.577350 /   0.509222  0.186388  0.840210 ->  -0.2080129771
    5:   0.000000  0.707107  0.707107 /   0.000000  0.464742  0.885446 ->  -0.1563906716
    6:   0.707107  0.000000  0.707107 /   0.501730 -0.250865  0.827849 ->  -0.1563906716
    7:   0.707107  0.707107  0.000000 /   0.939071  0.343724  0.000000 ->  -0.6121110150

 K-point ( 0.500, 0.000, 0.000) | band =    31
 Effective mass tensor:
              0.7203771976              0.3463557852             -0.1903346229
              0.3463557852              0.3204399860             -0.1098897457
             -0.1903346229             -0.1098897457              1.2077529066
 Effective mass tensor eigenvalues:
              0.1204713801              0.8014589218              1.3266397882
 Angular average effective mass 1/(<1/m>)=   0.2911989377
 Angular average effective mass for Frohlich model (<m**0.5>)**2=   0.4082466560
 Effective masses along directions: (cart. coord. / red. coord. -> eff. mass)
    1:   1.000000  0.000000  0.000000 /   0.894427 -0.447214  0.000000 ->   0.3416334383
    2:   0.000000  1.000000  0.000000 /   0.000000  1.000000  0.000000 ->   0.1536211004
    3:   0.000000  0.000000  1.000000 /   0.000000  0.000000  1.000000 ->   1.1552693458
    4:   0.577350  0.577350  0.577350 /   0.509222  0.186388  0.840210 ->   0.6434933441
    5:   0.000000  0.707107  0.707107 /   0.000000  0.464742  0.885446 ->   0.2637886500
    6:   0.707107  0.000000  0.707107 /   0.501730 -0.250865  0.827849 ->   0.4818420155
    7:   0.707107  0.707107  0.000000 /   0.939071  0.343724  0.000000 ->   0.6188649505

 END OF EFFECTIVE MASSES SECTION

================================================================================
 
 ---- first-order wavefunction calculations are completed ----
 
 
 Total localisation tensor (bohr^2) in cartesian coordinates
  WARNING : still subject to testing - especially symmetries.
      direction              matrix element
   alpha     beta       real part   imaginary part
     1        1       4.6341336622    0.0000000000
     1        2      -1.9198024693    0.0000000000
     1        3       0.0000000000    0.0000000000
     2        1      -1.9198024693    0.0000000000
     2        2       3.3251954174    0.0000000000
     2        3       0.0000000000    0.0000000000
     3        1       0.0000000000    0.0000000000
     3        2       0.0000000000    0.0000000000
     3        3       2.3259208306    0.0000000000
 
 respfn : d/dk was computed, but no 2DTE, so no DDB output.
 
== END DATASET(S) ==============================================================
================================================================================
  
 -outvars: echo values of variables after computation  --------
            acell      1.0000000000E+00  1.0000000000E+00  1.0000000000E+00 Bohr
              amu      8.76200000E+01  2.43050000E+01  1.21753000E+02
             ecut      4.20000000E+01 Hartree
           etotal     -1.9781367412E+01
            fcart      0.0000000000E+00  0.0000000000E+00  0.0000000000E+00
                       0.0000000000E+00  0.0000000000E+00  0.0000000000E+00
                       0.0000000000E+00  0.0000000000E+00  0.0000000000E+00
                       0.0000000000E+00  0.0000000000E+00  0.0000000000E+00
                       0.0000000000E+00  0.0000000000E+00  0.0000000000E+00
-          fftalg         512
           irdden           1
           irdwfk           1
           istwfk        1    1
              ixc     -116133
              kpt      0.00000000E+00  0.00000000E+00  0.00000000E+00
                       5.00000000E-01  0.00000000E+00  0.00000000E+00
           kptopt           0
P           mkmem           2
P          mkqmem           2
P          mk1mem           2
            natom           5
            nband          39
           nbdbuf           4
            ngfft          54      54      90
             nkpt           2
            nstep         100
             nsym          12
           ntypat           3
              occ      2.000000  2.000000  2.000000  2.000000  2.000000  2.000000
                       2.000000  2.000000  2.000000  2.000000  2.000000  2.000000
                       2.000000  2.000000  2.000000  2.000000  2.000000  2.000000
                       2.000000  2.000000  2.000000  2.000000  2.000000  2.000000
                       2.000000  2.000000  2.000000  2.000000  2.000000  2.000000
                       0.000000  0.000000  0.000000  0.000000  0.000000  0.000000
                       0.000000  0.000000  0.000000
        optdriver           1
            prtwf          -1
            rfdir           1       1       1
           rfelfd           2
            rprim      8.8751679839E+00  0.0000000000E+00  0.0000000000E+00
                      -4.4375839919E+00  7.6861209369E+00  0.0000000000E+00
                       0.0000000000E+00  0.0000000000E+00  1.4643912569E+01
          spgroup         164
           strten      0.0000000000E+00  0.0000000000E+00  0.0000000000E+00
                       0.0000000000E+00  0.0000000000E+00  0.0000000000E+00
           symrel      1  0  0   0  1  0   0  0  1      -1  0  0   0 -1  0   0  0 -1
                      -1  0  0   1  1  0   0  0  1       1  0  0  -1 -1  0   0  0 -1
                       0  1  0  -1 -1  0   0  0  1       0 -1  0   1  1  0   0  0 -1
                       0 -1  0  -1  0  0   0  0  1       0  1  0   1  0  0   0  0 -1
                      -1 -1  0   1  0  0   0  0  1       1  1  0  -1  0  0   0  0 -1
                       1  1  0   0 -1  0   0  0  1      -1 -1  0   0  1  0   0  0 -1
           tolwfr      1.00000000E-20
            typat      1  2  2  3  3
           useylm           1
              wtk        0.50000    0.50000
           xangst      0.0000000000E+00  0.0000000000E+00  0.0000000000E+00
                       2.3482683098E+00  1.3557733408E+00  2.8780155865E+00
                       1.7639241746E-11  2.7115466815E+00  4.8712091896E+00
                       1.7639241746E-11  2.7115466815E+00  1.9676831552E+00
                       2.3482683098E+00  1.3557733408E+00  5.7815416210E+00
            xcart      0.0000000000E+00  0.0000000000E+00  0.0000000000E+00
                       4.4375839920E+00  2.5620403123E+00  5.4386612647E+00
                       3.3333336091E-11  5.1240806246E+00  9.2052513044E+00
                       3.3333336091E-11  5.1240806246E+00  3.7183822795E+00
                       4.4375839920E+00  2.5620403123E+00  1.0925530290E+01
             xred      0.0000000000E+00  0.0000000000E+00  0.0000000000E+00
                       6.6666666667E-01  3.3333333333E-01  3.7139400000E-01
                       3.3333333333E-01  6.6666666667E-01  6.2860600000E-01
                       3.3333333333E-01  6.6666666667E-01  2.5392000000E-01
                       6.6666666667E-01  3.3333333333E-01  7.4608000000E-01
            znucl       38.00000   12.00000   51.00000
 
================================================================================


- Timing analysis has been suppressed with timopt=0



================================================================================

 Suggested references for the acknowledgment of ABINIT usage.

 The users of ABINIT have little formal obligations with respect to the ABINIT group
 (those specified in the GNU General Public License, http://www.gnu.org/copyleft/gpl.txt).
 However, it is common practice in the scientific literature,
 to acknowledge the efforts of people that have made the research possible.
 In this spirit, please find below suggested citations of work written by ABINIT developers,
 corresponding to implementations inside of ABINIT that you have used in the present run.
 Note also that it will be of great value to readers of publications presenting these results,
 to read papers enabling them to understand the theoretical formalism and details
 of the ABINIT implementation.
 For information on why they are suggested, see also https://docs.abinit.org/theory/acknowledgments.
-
- [1] Precise effective masses from density functional perturbation theory
- J. Laflamme Janssen, Y. Gillet, S. Ponce, A. Martin, M. Torrent, and X. Gonze. Phys. Rev. B 93, 205147 (2016)
- Comment: in case the DFPT prediction of effective masses is used.
- Strong suggestion to cite this paper in your publications.
- DOI and bibtex: see https://docs.abinit.org/theory/bibliography/#laflamme2016
-
- [2] Libxc: A library of exchange and correlation functionals for density functional theory.
- M.A.L. Marques, M.J.T. Oliveira, T. Burnus, Computer Physics Communications 183, 2227 (2012).
- Comment: to be cited when LibXC is used (negative value of ixc)
- Strong suggestion to cite this paper.
- DOI and bibtex: see https://docs.abinit.org/theory/bibliography/#marques2012
-
- [3] The Abinit project: Impact, environment and recent developments.
- Computer Phys. Comm. 248, 107042 (2020).
- X.Gonze, B. Amadon, G. Antonius, F.Arnardi, L.Baguet, J.-M.Beuken,
- J.Bieder, F.Bottin, J.Bouchet, E.Bousquet, N.Brouwer, F.Bruneval,
- G.Brunin, T.Cavignac, J.-B. Charraud, Wei Chen, M.Cote, S.Cottenier,
- J.Denier, G.Geneste, Ph.Ghosez, M.Giantomassi, Y.Gillet, O.Gingras,
- D.R.Hamann, G.Hautier, Xu He, N.Helbig, N.Holzwarth, Y.Jia, F.Jollet,
- W.Lafargue-Dit-Hauret, K.Lejaeghere, M.A.L.Marques, A.Martin, C.Martins,
- H.P.C. Miranda, F.Naccarato, K. Persson, G.Petretto, V.Planes, Y.Pouillon,
- S.Prokhorenko, F.Ricci, G.-M.Rignanese, A.H.Romero, M.M.Schmitt, M.Torrent,
- M.J.van Setten, B.Van Troeye, M.J.Verstraete, G.Zerah and J.W.Zwanzig
- Comment: the fifth generic paper describing the ABINIT project.
- Note that a version of this paper, that is not formatted for Computer Phys. Comm. 
- is available at https://www.abinit.org/sites/default/files/ABINIT20.pdf .
- The licence allows the authors to put it on the Web.
- DOI and bibtex: see https://docs.abinit.org/theory/bibliography/#gonze2020
-
- [4] First-principles responses of solids to atomic displacements and homogeneous electric fields:,
- implementation of a conjugate-gradient algorithm. X. Gonze, Phys. Rev. B55, 10337 (1997).
- Comment: Non-vanishing rfphon and/or rfelfd, in the norm-conserving case.
- DOI and bibtex: see https://docs.abinit.org/theory/bibliography/#gonze1997
-
- [5] Dynamical matrices, Born effective charges, dielectric permittivity tensors, and ,
- interatomic force constants from density-functional perturbation theory,
- X. Gonze and C. Lee, Phys. Rev. B55, 10355 (1997).
- Comment: Non-vanishing rfphon and/or rfelfd, in the norm-conserving case.
- DOI and bibtex: see https://docs.abinit.org/theory/bibliography/#gonze1997a
-
- [6] Optimized norm-conserving Vanderbilt pseudopotentials.
- D.R. Hamann, Phys. Rev. B 88, 085117 (2013).
- Comment: Some pseudopotential generated using the ONCVPSP code were used.
- DOI and bibtex: see https://docs.abinit.org/theory/bibliography/#hamann2013
-
- [7] ABINIT: Overview, and focus on selected capabilities
- J. Chem. Phys. 152, 124102 (2020).
- A. Romero, D.C. Allan, B. Amadon, G. Antonius, T. Applencourt, L.Baguet,
- J.Bieder, F.Bottin, J.Bouchet, E.Bousquet, F.Bruneval,
- G.Brunin, D.Caliste, M.Cote,
- J.Denier, C. Dreyer, Ph.Ghosez, M.Giantomassi, Y.Gillet, O.Gingras,
- D.R.Hamann, G.Hautier, F.Jollet, G. Jomard,
- A.Martin, 
- H.P.C. Miranda, F.Naccarato, G.Petretto, N.A. Pike, V.Planes,
- S.Prokhorenko, T. Rangel, F.Ricci, G.-M.Rignanese, M.Royo, M.Stengel, M.Torrent,
- M.J.van Setten, B.Van Troeye, M.J.Verstraete, J.Wiktor, J.W.Zwanziger, and X.Gonze.
- Comment: a global overview of ABINIT, with focus on selected capabilities .
- Note that a version of this paper, that is not formatted for J. Chem. Phys 
- is available at https://www.abinit.org/sites/default/files/ABINIT20_JPC.pdf .
- The licence allows the authors to put it on the Web.
- DOI and bibtex: see https://docs.abinit.org/theory/bibliography/#romero2020
-
- [8] Recent developments in the ABINIT software package.
- Computer Phys. Comm. 205, 106 (2016).
- X.Gonze, F.Jollet, F.Abreu Araujo, D.Adams, B.Amadon, T.Applencourt,
- C.Audouze, J.-M.Beuken, J.Bieder, A.Bokhanchuk, E.Bousquet, F.Bruneval
- D.Caliste, M.Cote, F.Dahm, F.Da Pieve, M.Delaveau, M.Di Gennaro,
- B.Dorado, C.Espejo, G.Geneste, L.Genovese, A.Gerossier, M.Giantomassi,
- Y.Gillet, D.R.Hamann, L.He, G.Jomard, J.Laflamme Janssen, S.Le Roux,
- A.Levitt, A.Lherbier, F.Liu, I.Lukacevic, A.Martin, C.Martins,
- M.J.T.Oliveira, S.Ponce, Y.Pouillon, T.Rangel, G.-M.Rignanese,
- A.H.Romero, B.Rousseau, O.Rubel, A.A.Shukri, M.Stankovski, M.Torrent,
- M.J.Van Setten, B.Van Troeye, M.J.Verstraete, D.Waroquier, J.Wiktor,
- B.Xu, A.Zhou, J.W.Zwanziger.
- Comment: the fourth generic paper describing the ABINIT project.
- Note that a version of this paper, that is not formatted for Computer Phys. Comm. 
- is available at https://www.abinit.org/sites/default/files/ABINIT16.pdf .
- The licence allows the authors to put it on the Web.
- DOI and bibtex: see https://docs.abinit.org/theory/bibliography/#gonze2016
-
- Proc.   0 individual time (sec): cpu=        115.0  wall=        124.6
 
================================================================================
 
 Calculation completed.
.Delivered  14 WARNINGs and   9 COMMENTs to log file.
+Overall time at end (sec) : cpu=        115.0  wall=        124.6
