
.Version 9.5.2 of ABINIT 
.(MPI version, prepared for a x86_64_linux_intel19.1 computer) 

.Copyright (C) 1998-2021 ABINIT group . 
 ABINIT comes with ABSOLUTELY NO WARRANTY.
 It is free software, and you are welcome to redistribute it
 under certain conditions (GNU General Public License,
 see ~abinit/COPYING or http://www.gnu.org/copyleft/gpl.txt).

 ABINIT is a project of the Universite Catholique de Louvain,
 Corning Inc. and other collaborators, see ~abinit/doc/developers/contributors.txt .
 Please read https://docs.abinit.org/theory/acknowledgments for suggested
 acknowledgments of the ABINIT effort.
 For more information, see https://www.abinit.org .

.Starting date : Mon 24 May 2021.
- ( at 22h59 )
  
- input  file    -> /scratch/users/j/a/jabreu/flow_simple_10atoms/flow/w465/t1/run.abi
- output file    -> /scratch/users/j/a/jabreu/flow_simple_10atoms/flow/w465/t1/run.abo
- root for input  files -> /scratch/users/j/a/jabreu/flow_simple_10atoms/flow/w465/t1/indata/in
- root for output files -> /scratch/users/j/a/jabreu/flow_simple_10atoms/flow/w465/t1/outdata/out
 
 
 Symmetries : space group Fm -3 m (#225); Bravais cF (face-center cubic)
================================================================================
 Values of the parameters that define the memory need of the present run (RF).
     intxc =       0      iscf =       7    lmnmax =      32     lnmax =       8
     mgfft =      72  mpssoang =       4    mqgrid =    3001     natom =      10
  nloc_mem =       1    nspden =       1   nspinor =       1    nsppol =       1
      nsym =      48    n1xccc =    2501    ntypat =       4    occopt =       1
   xclevel =       2
-    mband =          43        mffmem =           1         mkmem =           2
-   mkqmem =           2        mk1mem =           2           mpw =       12938
      nfft =      373248          nkpt =           2
================================================================================
P This job should need less than                     348.214 Mbytes of memory.
  Rough estimation (10% accuracy) of disk space for files :
_ WF disk file :     16.980 Mbytes ; DEN or POT disk file :      2.850 Mbytes.
================================================================================
 
--------------------------------------------------------------------------------
------------- Echo of variables that govern the present computation ------------
--------------------------------------------------------------------------------
-
- outvars: echo of selected default values                                      
-   iomode0 =  0 , fftalg0 =512 , wfoptalg0 =  0
-
- outvars: echo of global parameters not present in the input file              
-  max_nthreads =    0
-
 -outvars: echo values of preprocessed input variables --------
            acell      1.0000000000E+00  1.0000000000E+00  1.0000000000E+00 Bohr
              amu      1.32905430E+02  6.94100000E+00  1.40067400E+01
                       1.89984032E+01
             ecut      4.20000000E+01 Hartree
-          fftalg         512
           irdden           1
           irdwfk           1
           istwfk        1    1
              ixc     -116133
              kpt      5.00000000E-01  0.00000000E+00  5.00000000E-01
                       5.00000000E-01  5.00000000E-01  5.00000000E-01
           kptopt           0
P           mkmem           2
P          mkqmem           2
P          mk1mem           2
            natom          10
            nband          43
           nbdbuf           4
            ngfft          72      72      72
             nkpt           2
            nstep        2000
             nsym          48
           ntypat           4
              occ      2.000000  2.000000  2.000000  2.000000  2.000000  2.000000
                       2.000000  2.000000  2.000000  2.000000  2.000000  2.000000
                       2.000000  2.000000  2.000000  2.000000  2.000000  2.000000
                       2.000000  2.000000  2.000000  2.000000  2.000000  2.000000
                       2.000000  2.000000  2.000000  2.000000  2.000000  2.000000
                       2.000000  2.000000  2.000000  2.000000  0.000000  0.000000
                       0.000000  0.000000  0.000000  0.000000  0.000000  0.000000
                       0.000000
        optdriver           1
            prtwf          -1
            rfdir           1       1       1
           rfelfd           2
            rprim      9.6993696167E+00  0.0000000000E+00  5.5999336592E+00
                       3.2331232056E+00  9.1446533723E+00  5.5999336592E+00
                       0.0000000000E+00  0.0000000000E+00  1.1199867318E+01
          spgroup         225
           symrel      1  0  0   0  1  0   0  0  1      -1  0  0   0 -1  0   0  0 -1
                       0 -1  1   0 -1  0   1 -1  0       0  1 -1   0  1  0  -1  1  0
                      -1  0  0  -1  0  1  -1  1  0       1  0  0   1  0 -1   1 -1  0
                       0  1 -1   1  0 -1   0  0 -1       0 -1  1  -1  0  1   0  0  1
                      -1  0  0  -1  1  0  -1  0  1       1  0  0   1 -1  0   1  0 -1
                       0 -1  1   1 -1  0   0 -1  0       0  1 -1  -1  1  0   0  1  0
                       1  0  0   0  0  1   0  1  0      -1  0  0   0  0 -1   0 -1  0
                       0  1 -1   0  0 -1   1  0 -1       0 -1  1   0  0  1  -1  0  1
                      -1  0  1  -1  1  0  -1  0  0       1  0 -1   1 -1  0   1  0  0
                       0 -1  0   1 -1  0   0 -1  1       0  1  0  -1  1  0   0  1 -1
                       1  0 -1   0  0 -1   0  1 -1      -1  0  1   0  0  1   0 -1  1
                       0  1  0   0  0  1   1  0  0       0 -1  0   0  0 -1  -1  0  0
                       1  0 -1   0  1 -1   0  0 -1      -1  0  1   0 -1  1   0  0  1
                       0 -1  0   0 -1  1   1 -1  0       0  1  0   0  1 -1  -1  1  0
                      -1  0  1  -1  0  0  -1  1  0       1  0 -1   1  0  0   1 -1  0
                       0  1  0   1  0  0   0  0  1       0 -1  0  -1  0  0   0  0 -1
                       0  0 -1   0  1 -1   1  0 -1       0  0  1   0 -1  1  -1  0  1
                       1 -1  0   0 -1  1   0 -1  0      -1  1  0   0  1 -1   0  1  0
                       0  0  1   1  0  0   0  1  0       0  0 -1  -1  0  0   0 -1  0
                      -1  1  0  -1  0  0  -1  0  1       1 -1  0   1  0  0   1  0 -1
                       0  0  1   0  1  0   1  0  0       0  0 -1   0 -1  0  -1  0  0
                       1 -1  0   0 -1  0   0 -1  1      -1  1  0   0  1  0   0  1 -1
                       0  0 -1   1  0 -1   0  1 -1       0  0  1  -1  0  1   0 -1  1
                      -1  1  0  -1  0  1  -1  0  0       1 -1  0   1  0 -1   1  0  0
           tolwfr      1.00000000E-20
            typat      1  1  2  3  4  4  4  4  4  4
           useylm           1
              wtk        0.50000    0.50000
           xangst      1.7108951130E+00  1.2097855363E+00  2.9633572621E+00
                       5.1326853389E+00  3.6293566088E+00  8.8900717862E+00
                       0.0000000000E+00  0.0000000000E+00  0.0000000000E+00
                       3.4217902259E+00  2.4195710725E+00  5.9267145241E+00
                       2.6683393925E+00  3.4851114597E+00  7.2317296486E+00
                       4.1752410593E+00  1.3540306853E+00  7.2317296486E+00
                       2.6683393925E+00  3.4851114597E+00  4.6216993996E+00
                       1.9148885591E+00  1.3540306853E+00  5.9267145241E+00
                       4.9286918928E+00  3.4851114597E+00  5.9267145241E+00
                       4.1752410593E+00  1.3540306853E+00  4.6216993996E+00
            xcart      3.2331232056E+00  2.2861633431E+00  5.5999336592E+00
                       9.6993696167E+00  6.8584900292E+00  1.6799800978E+01
                       0.0000000000E+00  0.0000000000E+00  0.0000000000E+00
                       6.4662464112E+00  4.5723266862E+00  1.1199867318E+01
                       5.0424306814E+00  6.5859062015E+00  1.3665988503E+01
                       7.8900621409E+00  2.5587471708E+00  1.3665988503E+01
                       5.0424306814E+00  6.5859062015E+00  8.7337461338E+00
                       3.6186149516E+00  2.5587471708E+00  1.1199867318E+01
                       9.3138778707E+00  6.5859062015E+00  1.1199867318E+01
                       7.8900621409E+00  2.5587471708E+00  8.7337461338E+00
             xred      2.5000000000E-01  2.5000000000E-01  2.5000000000E-01
                       7.5000000000E-01  7.5000000000E-01  7.5000000000E-01
                       0.0000000000E+00  0.0000000000E+00  0.0000000000E+00
                       5.0000000000E-01  5.0000000000E-01  5.0000000000E-01
                       2.7980800000E-01  7.2019200000E-01  7.2019200000E-01
                       7.2019200000E-01  2.7980800000E-01  7.2019200000E-01
                       2.7980800000E-01  7.2019200000E-01  2.7980800000E-01
                       2.7980800000E-01  2.7980800000E-01  7.2019200000E-01
                       7.2019200000E-01  7.2019200000E-01  2.7980800000E-01
                       7.2019200000E-01  2.7980800000E-01  2.7980800000E-01
            znucl       55.00000    3.00000    7.00000    9.00000
 
================================================================================
 
 chkinp: Checking input parameters for consistency.
 
================================================================================
== DATASET  1 ==================================================================
-   mpi_nproc: 1, omp_nthreads: -1 (-1 if OMP is not activated)
 

--- !DatasetInfo
iteration_state: {dtset: 1, }
dimensions: {natom: 10, nkpt: 2, mband: 43, nsppol: 1, nspinor: 1, nspden: 1, mpw: 12938, }
cutoff_energies: {ecut:  42.0, pawecutdg:  -1.0, }
electrons: {nelect:   6.80000000E+01, charge:   0.00000000E+00, occopt:   1.00000000E+00, tsmear:   1.00000000E-02, }
meta: {optdriver: 1, rfelfd: 2, }
...

 Real(R)+Recip(G) space primitive vectors, cartesian coordinates (Bohr,Bohr^-1):
 R(1)=  9.6993696  0.0000000  5.5999337  G(1)=  0.1030995 -0.0364512  0.0000000
 R(2)=  3.2331232  9.1446534  5.5999337  G(2)=  0.0000000  0.1093535  0.0000000
 R(3)=  0.0000000  0.0000000 11.1998673  G(3)= -0.0515497 -0.0364512  0.0892868
 Unit cell volume ucvol=  9.9339881E+02 bohr^3
 Angles (23,13,12)=  6.00000000E+01  6.00000000E+01  6.00000000E+01 degrees
 
 getcut: wavevector=  0.0000  0.0000  0.0000  ngfft=  72  72  72
         ecut(hartree)=     42.000   => boxcut(ratio)=   2.20359
 
 getcut : COMMENT -
  Note that boxcut > 2.2 ; recall that boxcut=Gcut(box)/Gcut(sphere) = 2
  is sufficient for exact treatment of convolution.
  Such a large boxcut is a waste : you could raise ecut
  e.g. ecut=   50.985772 Hartrees makes boxcut=2
 
 
--- Pseudopotential description ------------------------------------------------
- pspini: atom type   1  psp file is /scratch/users/j/a/jabreu/pseudos/PBEsol/Cs.psp8
- pspatm: opening atomic psp file    /scratch/users/j/a/jabreu/pseudos/PBEsol/Cs.psp8
- Cs    ONCVPSP-3.3.0  r_core=   2.27353   1.85623   2.01788   1.90105
- 55.00000   9.00000    180112                znucl, zion, pspdat
    8 -116133    3    4       600   0.00000   pspcod,pspxc,lmax,lloc,mmax,r2well
    5.99000000000000    5.00000000000000    0.00000000000000   rchrg,fchrg,qchrg
     nproj     2     2     2     2
     extension_switch     1
  pspatm : epsatm=   22.12462445
         --- l  ekb(1:nproj) -->
             0    6.214110    0.767882
             1    6.311966    0.793598
             2    3.769790    0.913105
             3   -9.247129   -2.432478
 pspatm: atomic psp has been read  and splines computed
 
- pspini: atom type   2  psp file is /scratch/users/j/a/jabreu/pseudos/PBEsol/Li.psp8
- pspatm: opening atomic psp file    /scratch/users/j/a/jabreu/pseudos/PBEsol/Li.psp8
- Li    ONCVPSP-3.3.0  r_core=   1.40824   1.10935
-  3.00000   3.00000    180112                znucl, zion, pspdat
    8 -116133    1    4       400   0.00000   pspcod,pspxc,lmax,lloc,mmax,r2well
    3.99000000000000    0.00000000000000    0.00000000000000   rchrg,fchrg,qchrg
     nproj     2     2
     extension_switch     1
  pspatm : epsatm=    2.60859637
         --- l  ekb(1:nproj) -->
             0   -4.855856   -1.482423
             1   -2.171544   -0.427615
 pspatm: atomic psp has been read  and splines computed
 
- pspini: atom type   3  psp file is /scratch/users/j/a/jabreu/pseudos/PBEsol/N.psp8
- pspatm: opening atomic psp file    /scratch/users/j/a/jabreu/pseudos/PBEsol/N.psp8
- N     ONCVPSP-3.3.0  r_core=   1.20551   1.35824
-  7.00000   5.00000    180112                znucl, zion, pspdat
    8 -116133    1    4       600   0.00000   pspcod,pspxc,lmax,lloc,mmax,r2well
    5.99000000000000    4.00000000000000    0.00000000000000   rchrg,fchrg,qchrg
     nproj     2     2
     extension_switch     1
  pspatm : epsatm=    5.26508895
         --- l  ekb(1:nproj) -->
             0    7.464189    0.625868
             1   -4.309714   -1.012941
 pspatm: atomic psp has been read  and splines computed
 
- pspini: atom type   4  psp file is /scratch/users/j/a/jabreu/pseudos/PBEsol/F.psp8
- pspatm: opening atomic psp file    /scratch/users/j/a/jabreu/pseudos/PBEsol/F.psp8
- F     ONCVPSP-3.3.0  r_core=   1.30942   1.45782   1.60379
-  9.00000   7.00000    180112                znucl, zion, pspdat
    8 -116133    2    4       600   0.00000   pspcod,pspxc,lmax,lloc,mmax,r2well
    5.99000000000000    2.50000000000000    0.00000000000000   rchrg,fchrg,qchrg
     nproj     2     2     1
     extension_switch     1
  pspatm : epsatm=    4.89824824
         --- l  ekb(1:nproj) -->
             0    6.506434    1.065875
             1   -3.978753   -1.295852
             2   -2.394754
 pspatm: atomic psp has been read  and splines computed
 
   5.54284481E+03                                ecore*ucvol(ha*bohr**3)
--------------------------------------------------------------------------------
 
 
 ==>  initialize data related to q vector <== 
 
 The list of irreducible perturbations for this q vector is:
    1)    idir= 1    ipert=  11
    2)    idir= 2    ipert=  11
    3)    idir= 3    ipert=  11
 
================================================================================
 
--------------------------------------------------------------------------------
 Perturbation wavevector (in red.coord.)   0.000000  0.000000  0.000000
 Perturbation : derivative vs k along direction   1
 
 dfpt_looppert : COMMENT -
  In a d/dk calculation, iscf is set to -3 automatically.
 The set of symmetries contains only one element for this perturbation.
 symkpt : not enough symmetry to change the number of k points.
 
--------------------------------------------------------------------------------
 
--------------------------------------------------------------------------------
 
 Initialisation of the first-order wave-functions :
  ireadwf=   0

--- !BeginCycle
iteration_state: {dtset: 1, }
solver: {iscf: 7, nstep: 2000, nline: 4, wfoptalg: 0, }
tolerances: {tolwfr: 1.00E-20, }
...
 
     iter   2DEtotal(Ha)        deltaE(Ha) residm    vres2
-ETOT  1  -34.581666299498     -3.458E+01 6.416E-02 0.000E+00
 ETOT  2  -34.612897033424     -3.123E-02 4.069E-03 0.000E+00
 ETOT  3  -34.613487621914     -5.906E-04 3.683E-04 0.000E+00
 ETOT  4  -34.613505708157     -1.809E-05 8.306E-05 0.000E+00
 ETOT  5  -34.613506317944     -6.098E-07 7.992E-06 0.000E+00
 ETOT  6  -34.613506340520     -2.258E-08 2.025E-06 0.000E+00
 ETOT  7  -34.613506341398     -8.784E-10 1.830E-07 0.000E+00
 ETOT  8  -34.613506341434     -3.593E-11 4.988E-08 0.000E+00
 ETOT  9  -34.613506341436     -1.556E-12 4.410E-09 0.000E+00
 ETOT 10  -34.613506341436     -3.553E-14 1.250E-09 0.000E+00
 ETOT 11  -34.613506341436     -3.553E-14 1.096E-10 0.000E+00
 ETOT 12  -34.613506341436      2.842E-14 3.166E-11 0.000E+00
 ETOT 13  -34.613506341436      7.105E-15 2.764E-12 0.000E+00
 ETOT 14  -34.613506341436     -7.105E-15 8.062E-13 0.000E+00
 ETOT 15  -34.613506341436      0.000E+00 7.030E-14 0.000E+00
 ETOT 16  -34.613506341436      0.000E+00 2.060E-14 0.000E+00
 ETOT 17  -34.613506341436      0.000E+00 1.799E-15 0.000E+00
 ETOT 18  -34.613506341436      0.000E+00 5.282E-16 0.000E+00
 ETOT 19  -34.613506341436     -1.421E-14 4.623E-17 0.000E+00
 ETOT 20  -34.613506341436      7.105E-15 1.358E-17 0.000E+00
 ETOT 21  -34.613506341436      1.421E-14 1.193E-18 0.000E+00
 ETOT 22  -34.613506341436      0.000E+00 3.499E-19 0.000E+00
 ETOT 23  -34.613506341436     -7.105E-15 3.088E-20 0.000E+00
 ETOT 24  -34.613506341436      7.105E-15 9.929E-21 0.000E+00
 
 At SCF step   24   max residual=  9.93E-21 < tolwfr=  1.00E-20 =>converged.
================================================================================
 
 ----iterations are completed or convergence reached----
 
 dfpt_looppert: DFPT cycle converged with prtwf=-1. Will skip output of the 1st-order WFK file.
 dfpt_looppert : ek2=    6.4204304925E+01
          f-sum rule ratio=    1.0044998253E+00
 prteigrs : about to open file /scratch/users/j/a/jabreu/flow_simple_10atoms/flow/w465/t1/tmpdata/tmp_1WF1_EIG
 Expectation of eigenvalue derivatives (hartree) for nkpt=   2  k points:
  (in case of degenerate eigenvalues, averaged derivative)
 kpt#   1, nband= 43, wtk=  0.50000, kpt=  0.5000  0.0000  0.5000 (reduced coord)
  -0.00000   -0.00000    0.00000    0.00000    0.00000    0.00000    0.00000    0.00000
   0.00000    0.00000    0.00000    0.00000    0.00000    0.00000    0.00000   -0.00000
   0.00000    0.00000   -0.00000    0.00000    0.00000    0.00000    0.00000   -0.00000
   0.00000   -0.00000   -0.00000   -0.00000    0.00000    0.00000    0.00000    0.00000
   0.00000    0.00000   -0.00000   -0.00000   -0.00000    0.00000    0.00000   -0.00000
  -0.00000   -0.00000   -0.00000
 prteigrs : prtvol=0 or 1, do not print more k-points.
 
 
 Eight components of 2nd-order total energy (hartree) are
 1,2,3: 0th-order hamiltonian combined with 1st-order wavefunctions
     kin0=   4.49208290E+01 eigvalue=   1.94094169E+00  local=  -1.95019118E+01
 4,5,6: 1st-order hamiltonian combined with 1st and 0th-order wfs
     kin1=  -6.44932131E+01  Hartree=   0.00000000E+00     xc=   0.00000000E+00
 7,8,9: eventually, occupation + non-local contributions
    edocc=   6.04148623E+00     enl0=   1.21216117E+00   enl1=  -4.73379960E+00
 1-9 gives the relaxation energy (to be shifted if some occ is /=2.0)
   erelax=  -3.46135063E+01
  No Ewald or frozen-wf contrib.: the relaxation energy is the total one
 2DEtotal=   -0.3461350634E+02 Ha. Also 2DEtotal=   -0.941881407797E+03 eV
    (  non-var. 2DEtotal :   -3.4613506341E+01 Ha)
 
--------------------------------------------------------------------------------
 Perturbation wavevector (in red.coord.)   0.000000  0.000000  0.000000
 Perturbation : derivative vs k along direction   2
 The set of symmetries contains only one element for this perturbation.
 symkpt : not enough symmetry to change the number of k points.
 
--------------------------------------------------------------------------------
 
--------------------------------------------------------------------------------
 
 Initialisation of the first-order wave-functions :
  ireadwf=   0

--- !BeginCycle
iteration_state: {dtset: 1, }
solver: {iscf: 7, nstep: 2000, nline: 4, wfoptalg: 0, }
tolerances: {tolwfr: 1.00E-20, }
...
 
     iter   2DEtotal(Ha)        deltaE(Ha) residm    vres2
-ETOT  1  -34.582486738409     -3.458E+01 4.320E-02 0.000E+00
 ETOT  2  -34.612897078380     -3.041E-02 4.069E-03 0.000E+00
 ETOT  3  -34.613487492698     -5.904E-04 3.683E-04 0.000E+00
 ETOT  4  -34.613505520432     -1.803E-05 8.306E-05 0.000E+00
 ETOT  5  -34.613506123009     -6.026E-07 7.992E-06 0.000E+00
 ETOT  6  -34.613506145128     -2.212E-08 2.025E-06 0.000E+00
 ETOT  7  -34.613506145982     -8.544E-10 1.830E-07 0.000E+00
 ETOT  8  -34.613506146017     -3.483E-11 4.988E-08 0.000E+00
 ETOT  9  -34.613506146019     -1.464E-12 4.410E-09 0.000E+00
 ETOT 10  -34.613506146019     -5.684E-14 1.250E-09 0.000E+00
 ETOT 11  -34.613506146019     -1.421E-14 1.096E-10 0.000E+00
 ETOT 12  -34.613506146019     -1.421E-14 3.166E-11 0.000E+00
 ETOT 13  -34.613506146019      7.105E-15 2.764E-12 0.000E+00
 ETOT 14  -34.613506146019     -1.421E-14 8.062E-13 0.000E+00
 ETOT 15  -34.613506146019     -7.105E-15 7.030E-14 0.000E+00
 ETOT 16  -34.613506146019      1.421E-14 2.060E-14 0.000E+00
 ETOT 17  -34.613506146019      0.000E+00 1.799E-15 0.000E+00
 ETOT 18  -34.613506146019     -1.421E-14 5.282E-16 0.000E+00
 ETOT 19  -34.613506146019      7.105E-15 4.623E-17 0.000E+00
 ETOT 20  -34.613506146019     -7.105E-15 1.358E-17 0.000E+00
 ETOT 21  -34.613506146019      0.000E+00 1.193E-18 0.000E+00
 ETOT 22  -34.613506146019      0.000E+00 3.499E-19 0.000E+00
 ETOT 23  -34.613506146019      0.000E+00 3.088E-20 0.000E+00
 ETOT 24  -34.613506146019      7.105E-15 9.929E-21 0.000E+00
 
 At SCF step   24   max residual=  9.93E-21 < tolwfr=  1.00E-20 =>converged.
================================================================================
 
 ----iterations are completed or convergence reached----
 
 dfpt_looppert: DFPT cycle converged with prtwf=-1. Will skip output of the 1st-order WFK file.
 dfpt_looppert : ek2=    6.4204304925E+01
          f-sum rule ratio=    1.0044998193E+00
 prteigrs : about to open file /scratch/users/j/a/jabreu/flow_simple_10atoms/flow/w465/t1/tmpdata/tmp_1WF1_EIG
 Expectation of eigenvalue derivatives (hartree) for nkpt=   2  k points:
  (in case of degenerate eigenvalues, averaged derivative)
 kpt#   1, nband= 43, wtk=  0.50000, kpt=  0.5000  0.0000  0.5000 (reduced coord)
   0.00000    0.00000    0.00000   -0.00000   -0.00000   -0.00000   -0.00000   -0.00000
  -0.00000   -0.00000   -0.00000   -0.00000   -0.00000   -0.00000   -0.00000    0.00000
   0.00000    0.00000    0.00000   -0.00000   -0.00000    0.00000    0.00000   -0.00000
  -0.00000    0.00000   -0.00000   -0.00000   -0.00000   -0.00000    0.00000   -0.00000
  -0.00000    0.00000    0.00000    0.00000    0.00000   -0.00000   -0.00000    0.00000
  -0.00000   -0.00000   -0.00000
 prteigrs : prtvol=0 or 1, do not print more k-points.
 
 
 Eight components of 2nd-order total energy (hartree) are
 1,2,3: 0th-order hamiltonian combined with 1st-order wavefunctions
     kin0=   4.49208310E+01 eigvalue=   1.94094178E+00  local=  -1.95019130E+01
 4,5,6: 1st-order hamiltonian combined with 1st and 0th-order wfs
     kin1=  -6.44932127E+01  Hartree=   0.00000000E+00     xc=   0.00000000E+00
 7,8,9: eventually, occupation + non-local contributions
    edocc=   6.04148492E+00     enl0=   1.21216142E+00   enl1=  -4.73379960E+00
 1-9 gives the relaxation energy (to be shifted if some occ is /=2.0)
   erelax=  -3.46135061E+01
  No Ewald or frozen-wf contrib.: the relaxation energy is the total one
 2DEtotal=   -0.3461350615E+02 Ha. Also 2DEtotal=   -0.941881402480E+03 eV
    (  non-var. 2DEtotal :   -3.4613506146E+01 Ha)
 
--------------------------------------------------------------------------------
 Perturbation wavevector (in red.coord.)   0.000000  0.000000  0.000000
 Perturbation : derivative vs k along direction   3
 The set of symmetries contains only one element for this perturbation.
 symkpt : not enough symmetry to change the number of k points.
 
--------------------------------------------------------------------------------
 
--------------------------------------------------------------------------------
 
 Initialisation of the first-order wave-functions :
  ireadwf=   0

--- !BeginCycle
iteration_state: {dtset: 1, }
solver: {iscf: 7, nstep: 2000, nline: 4, wfoptalg: 0, }
tolerances: {tolwfr: 1.00E-20, }
...
 
     iter   2DEtotal(Ha)        deltaE(Ha) residm    vres2
-ETOT  1  -34.582119153040     -3.458E+01 4.320E-02 0.000E+00
 ETOT  2  -34.612907877207     -3.079E-02 4.069E-03 0.000E+00
 ETOT  3  -34.613488150062     -5.803E-04 3.683E-04 0.000E+00
 ETOT  4  -34.613505833344     -1.768E-05 8.306E-05 0.000E+00
 ETOT  5  -34.613506428683     -5.953E-07 7.992E-06 0.000E+00
 ETOT  6  -34.613506450712     -2.203E-08 2.025E-06 0.000E+00
 ETOT  7  -34.613506451569     -8.563E-10 1.830E-07 0.000E+00
 ETOT  8  -34.613506451604     -3.496E-11 4.988E-08 0.000E+00
 ETOT  9  -34.613506451605     -1.471E-12 4.410E-09 0.000E+00
 ETOT 10  -34.613506451605     -8.527E-14 1.250E-09 0.000E+00
 ETOT 11  -34.613506451605     -7.105E-15 1.096E-10 0.000E+00
 ETOT 12  -34.613506451605      0.000E+00 3.166E-11 0.000E+00
 ETOT 13  -34.613506451605      0.000E+00 2.764E-12 0.000E+00
 ETOT 14  -34.613506451605      2.132E-14 8.062E-13 0.000E+00
 ETOT 15  -34.613506451605      0.000E+00 7.030E-14 0.000E+00
 ETOT 16  -34.613506451605      0.000E+00 2.060E-14 0.000E+00
 ETOT 17  -34.613506451605      0.000E+00 1.799E-15 0.000E+00
 ETOT 18  -34.613506451605     -1.421E-14 5.282E-16 0.000E+00
 ETOT 19  -34.613506451605      2.132E-14 4.623E-17 0.000E+00
 ETOT 20  -34.613506451605     -7.105E-15 1.358E-17 0.000E+00
 ETOT 21  -34.613506451605      0.000E+00 1.193E-18 0.000E+00
 ETOT 22  -34.613506451605      0.000E+00 3.499E-19 0.000E+00
 ETOT 23  -34.613506451605     -1.421E-14 3.088E-20 0.000E+00
 ETOT 24  -34.613506451605      0.000E+00 9.929E-21 0.000E+00
 
 At SCF step   24   max residual=  9.93E-21 < tolwfr=  1.00E-20 =>converged.
================================================================================
 
 ----iterations are completed or convergence reached----
 
 dfpt_looppert: DFPT cycle converged with prtwf=-1. Will skip output of the 1st-order WFK file.
 dfpt_looppert : ek2=    6.4204304926E+01
          f-sum rule ratio=    1.0044998291E+00
 prteigrs : about to open file /scratch/users/j/a/jabreu/flow_simple_10atoms/flow/w465/t1/tmpdata/tmp_1WF1_EIG
 Expectation of eigenvalue derivatives (hartree) for nkpt=   2  k points:
  (in case of degenerate eigenvalues, averaged derivative)
 kpt#   1, nband= 43, wtk=  0.50000, kpt=  0.5000  0.0000  0.5000 (reduced coord)
  -0.00000    0.00000   -0.00000    0.00000    0.00000   -0.00000   -0.00000   -0.00000
   0.00000   -0.00000   -0.00000   -0.00000    0.00000    0.00000    0.00000    0.00000
  -0.00000   -0.00000   -0.00000    0.00000   -0.00000   -0.00000   -0.00000    0.00000
  -0.00000    0.00000    0.00000    0.00000   -0.00000   -0.00000   -0.00000   -0.00000
  -0.00000   -0.00000    0.00000    0.00000   -0.00000    0.00000    0.00000   -0.00000
   0.00000    0.00000    0.00000
 prteigrs : prtvol=0 or 1, do not print more k-points.
 
 
 Eight components of 2nd-order total energy (hartree) are
 1,2,3: 0th-order hamiltonian combined with 1st-order wavefunctions
     kin0=   4.49208287E+01 eigvalue=   1.94094169E+00  local=  -1.95019116E+01
 4,5,6: 1st-order hamiltonian combined with 1st and 0th-order wfs
     kin1=  -6.44932133E+01  Hartree=   0.00000000E+00     xc=   0.00000000E+00
 7,8,9: eventually, occupation + non-local contributions
    edocc=   6.04148655E+00     enl0=   1.21216108E+00   enl1=  -4.73379958E+00
 1-9 gives the relaxation energy (to be shifted if some occ is /=2.0)
   erelax=  -3.46135065E+01
  No Ewald or frozen-wf contrib.: the relaxation energy is the total one
 2DEtotal=   -0.3461350645E+02 Ha. Also 2DEtotal=   -0.941881410795E+03 eV
    (  non-var. 2DEtotal :   -3.4613506452E+01 Ha)
 
 CALCULATION OF EFFECTIVE MASSES
 NOTE : Additional infos (eff. mass eigenvalues, eigenvectors and, if degenerate, average mass) are available in stdout.

 K-point ( 0.500, 0.000, 0.500) | band =    34
 Effective mass tensor:
            -39.9466071849            -10.8218494606             13.2540048967
            -10.8218494606            -32.2944036688            -18.7439931738
             13.2540048967            -18.7439931738            -24.6422006782
 Effective mass tensor eigenvalues:
            -47.5988105060            -47.5988099930             -1.6855910328
 Angular average effective mass 1/(<1/m>)=  -4.7223154695
 Angular average effective mass for Frohlich model (<m**0.5>)**2=  -9.6875797176
 Effective masses along directions: (cart. coord. / red. coord. -> eff. mass)
    1:   1.000000  0.000000  0.000000 /   0.948683  0.316228  0.000000 ->  -8.5921927299
    2:   0.000000  1.000000  0.000000 /   0.000000  1.000000  0.000000 ->  -4.7223154657
    3:   0.000000  0.000000  1.000000 /   0.408248  0.408248  0.816497 ->  -3.2558832280
    4:   0.577350  0.577350  0.577350 /   0.585539  0.688047  0.428644 -> -13.1196029059
    5:   0.000000  0.707107  0.707107 /   0.289489  0.762222  0.578977 -> -38.7200924682
    6:   0.707107  0.000000  0.707107 /   0.731423  0.422287  0.535439 ->  -2.6528277332
    7:   0.707107  0.707107  0.000000 /   0.616798  0.787122  0.000000 -> -34.2572766712

 K-point ( 0.500, 0.500, 0.500) | band =    35
 Effective mass tensor:
              1.8290727375              0.1788526225              0.4380976630
              0.1788526225              1.7026048362              0.3097818285
              0.4380976630              0.3097818285              2.3349443460
 Effective mass tensor eigenvalues:
              1.5761369336              1.5761369346              2.7143480514
 Angular average effective mass 1/(<1/m>)=   1.8322424789
 Angular average effective mass for Frohlich model (<m**0.5>)**2=   1.8648544753
 Effective masses along directions: (cart. coord. / red. coord. -> eff. mass)
    1:   1.000000  0.000000  0.000000 /   0.948683  0.316228  0.000000 ->   1.7381014575
    2:   0.000000  1.000000  0.000000 /   0.000000  1.000000  0.000000 ->   1.6531616493
    3:   0.000000  0.000000  1.000000 /   0.408248  0.408248  0.816497 ->   2.1877245246
    4:   0.577350  0.577350  0.577350 /   0.585539  0.688047  0.428644 ->   2.4914839383
    5:   0.000000  0.707107  0.707107 /   0.289489  0.762222  0.578977 ->   2.1806014194
    6:   0.707107  0.000000  0.707107 /   0.731423  0.422287  0.535439 ->   2.4165360895
    7:   0.707107  0.707107  0.000000 /   0.616798  0.787122  0.000000 ->   1.8237684081

 END OF EFFECTIVE MASSES SECTION

================================================================================
 
 ---- first-order wavefunction calculations are completed ----
 
 
 Total localisation tensor (bohr^2) in cartesian coordinates
  WARNING : still subject to testing - especially symmetries.
      direction              matrix element
   alpha     beta       real part   imaginary part
     1        1       0.8604983932    0.0000000000
     1        2       0.2433856950    0.0000000000
     1        3       0.5961707729    0.0000000000
     2        1       0.2433856950    0.0000000000
     2        2       0.6883987016    0.0000000000
     2        3       0.4215563896    0.0000000000
     3        1       0.5961707729    0.0000000000
     3        2       0.4215563896    0.0000000000
     3        3       1.5488971150    0.0000000000
 
 respfn : d/dk was computed, but no 2DTE, so no DDB output.
 
== END DATASET(S) ==============================================================
================================================================================
  
 -outvars: echo values of variables after computation  --------
            acell      1.0000000000E+00  1.0000000000E+00  1.0000000000E+00 Bohr
              amu      1.32905430E+02  6.94100000E+00  1.40067400E+01
                       1.89984032E+01
             ecut      4.20000000E+01 Hartree
           etotal     -3.4613506452E+01
            fcart      0.0000000000E+00  0.0000000000E+00  0.0000000000E+00
                       0.0000000000E+00  0.0000000000E+00  0.0000000000E+00
                       0.0000000000E+00  0.0000000000E+00  0.0000000000E+00
                       0.0000000000E+00  0.0000000000E+00  0.0000000000E+00
                       0.0000000000E+00  0.0000000000E+00  0.0000000000E+00
                       0.0000000000E+00  0.0000000000E+00  0.0000000000E+00
                       0.0000000000E+00  0.0000000000E+00  0.0000000000E+00
                       0.0000000000E+00  0.0000000000E+00  0.0000000000E+00
                       0.0000000000E+00  0.0000000000E+00  0.0000000000E+00
                       0.0000000000E+00  0.0000000000E+00  0.0000000000E+00
-          fftalg         512
           irdden           1
           irdwfk           1
           istwfk        1    1
              ixc     -116133
              kpt      5.00000000E-01  0.00000000E+00  5.00000000E-01
                       5.00000000E-01  5.00000000E-01  5.00000000E-01
           kptopt           0
P           mkmem           2
P          mkqmem           2
P          mk1mem           2
            natom          10
            nband          43
           nbdbuf           4
            ngfft          72      72      72
             nkpt           2
            nstep        2000
             nsym          48
           ntypat           4
              occ      2.000000  2.000000  2.000000  2.000000  2.000000  2.000000
                       2.000000  2.000000  2.000000  2.000000  2.000000  2.000000
                       2.000000  2.000000  2.000000  2.000000  2.000000  2.000000
                       2.000000  2.000000  2.000000  2.000000  2.000000  2.000000
                       2.000000  2.000000  2.000000  2.000000  2.000000  2.000000
                       2.000000  2.000000  2.000000  2.000000  0.000000  0.000000
                       0.000000  0.000000  0.000000  0.000000  0.000000  0.000000
                       0.000000
        optdriver           1
            prtwf          -1
            rfdir           1       1       1
           rfelfd           2
            rprim      9.6993696167E+00  0.0000000000E+00  5.5999336592E+00
                       3.2331232056E+00  9.1446533723E+00  5.5999336592E+00
                       0.0000000000E+00  0.0000000000E+00  1.1199867318E+01
          spgroup         225
           strten      0.0000000000E+00  0.0000000000E+00  0.0000000000E+00
                       0.0000000000E+00  0.0000000000E+00  0.0000000000E+00
           symrel      1  0  0   0  1  0   0  0  1      -1  0  0   0 -1  0   0  0 -1
                       0 -1  1   0 -1  0   1 -1  0       0  1 -1   0  1  0  -1  1  0
                      -1  0  0  -1  0  1  -1  1  0       1  0  0   1  0 -1   1 -1  0
                       0  1 -1   1  0 -1   0  0 -1       0 -1  1  -1  0  1   0  0  1
                      -1  0  0  -1  1  0  -1  0  1       1  0  0   1 -1  0   1  0 -1
                       0 -1  1   1 -1  0   0 -1  0       0  1 -1  -1  1  0   0  1  0
                       1  0  0   0  0  1   0  1  0      -1  0  0   0  0 -1   0 -1  0
                       0  1 -1   0  0 -1   1  0 -1       0 -1  1   0  0  1  -1  0  1
                      -1  0  1  -1  1  0  -1  0  0       1  0 -1   1 -1  0   1  0  0
                       0 -1  0   1 -1  0   0 -1  1       0  1  0  -1  1  0   0  1 -1
                       1  0 -1   0  0 -1   0  1 -1      -1  0  1   0  0  1   0 -1  1
                       0  1  0   0  0  1   1  0  0       0 -1  0   0  0 -1  -1  0  0
                       1  0 -1   0  1 -1   0  0 -1      -1  0  1   0 -1  1   0  0  1
                       0 -1  0   0 -1  1   1 -1  0       0  1  0   0  1 -1  -1  1  0
                      -1  0  1  -1  0  0  -1  1  0       1  0 -1   1  0  0   1 -1  0
                       0  1  0   1  0  0   0  0  1       0 -1  0  -1  0  0   0  0 -1
                       0  0 -1   0  1 -1   1  0 -1       0  0  1   0 -1  1  -1  0  1
                       1 -1  0   0 -1  1   0 -1  0      -1  1  0   0  1 -1   0  1  0
                       0  0  1   1  0  0   0  1  0       0  0 -1  -1  0  0   0 -1  0
                      -1  1  0  -1  0  0  -1  0  1       1 -1  0   1  0  0   1  0 -1
                       0  0  1   0  1  0   1  0  0       0  0 -1   0 -1  0  -1  0  0
                       1 -1  0   0 -1  0   0 -1  1      -1  1  0   0  1  0   0  1 -1
                       0  0 -1   1  0 -1   0  1 -1       0  0  1  -1  0  1   0 -1  1
                      -1  1  0  -1  0  1  -1  0  0       1 -1  0   1  0 -1   1  0  0
           tolwfr      1.00000000E-20
            typat      1  1  2  3  4  4  4  4  4  4
           useylm           1
              wtk        0.50000    0.50000
           xangst      1.7108951130E+00  1.2097855363E+00  2.9633572621E+00
                       5.1326853389E+00  3.6293566088E+00  8.8900717862E+00
                       0.0000000000E+00  0.0000000000E+00  0.0000000000E+00
                       3.4217902259E+00  2.4195710725E+00  5.9267145241E+00
                       2.6683393925E+00  3.4851114597E+00  7.2317296486E+00
                       4.1752410593E+00  1.3540306853E+00  7.2317296486E+00
                       2.6683393925E+00  3.4851114597E+00  4.6216993996E+00
                       1.9148885591E+00  1.3540306853E+00  5.9267145241E+00
                       4.9286918928E+00  3.4851114597E+00  5.9267145241E+00
                       4.1752410593E+00  1.3540306853E+00  4.6216993996E+00
            xcart      3.2331232056E+00  2.2861633431E+00  5.5999336592E+00
                       9.6993696167E+00  6.8584900292E+00  1.6799800978E+01
                       0.0000000000E+00  0.0000000000E+00  0.0000000000E+00
                       6.4662464112E+00  4.5723266862E+00  1.1199867318E+01
                       5.0424306814E+00  6.5859062015E+00  1.3665988503E+01
                       7.8900621409E+00  2.5587471708E+00  1.3665988503E+01
                       5.0424306814E+00  6.5859062015E+00  8.7337461338E+00
                       3.6186149516E+00  2.5587471708E+00  1.1199867318E+01
                       9.3138778707E+00  6.5859062015E+00  1.1199867318E+01
                       7.8900621409E+00  2.5587471708E+00  8.7337461338E+00
             xred      2.5000000000E-01  2.5000000000E-01  2.5000000000E-01
                       7.5000000000E-01  7.5000000000E-01  7.5000000000E-01
                       0.0000000000E+00  0.0000000000E+00  0.0000000000E+00
                       5.0000000000E-01  5.0000000000E-01  5.0000000000E-01
                       2.7980800000E-01  7.2019200000E-01  7.2019200000E-01
                       7.2019200000E-01  2.7980800000E-01  7.2019200000E-01
                       2.7980800000E-01  7.2019200000E-01  2.7980800000E-01
                       2.7980800000E-01  2.7980800000E-01  7.2019200000E-01
                       7.2019200000E-01  7.2019200000E-01  2.7980800000E-01
                       7.2019200000E-01  2.7980800000E-01  2.7980800000E-01
            znucl       55.00000    3.00000    7.00000    9.00000
 
================================================================================


- Timing analysis has been suppressed with timopt=0



================================================================================

 Suggested references for the acknowledgment of ABINIT usage.

 The users of ABINIT have little formal obligations with respect to the ABINIT group
 (those specified in the GNU General Public License, http://www.gnu.org/copyleft/gpl.txt).
 However, it is common practice in the scientific literature,
 to acknowledge the efforts of people that have made the research possible.
 In this spirit, please find below suggested citations of work written by ABINIT developers,
 corresponding to implementations inside of ABINIT that you have used in the present run.
 Note also that it will be of great value to readers of publications presenting these results,
 to read papers enabling them to understand the theoretical formalism and details
 of the ABINIT implementation.
 For information on why they are suggested, see also https://docs.abinit.org/theory/acknowledgments.
-
- [1] Precise effective masses from density functional perturbation theory
- J. Laflamme Janssen, Y. Gillet, S. Ponce, A. Martin, M. Torrent, and X. Gonze. Phys. Rev. B 93, 205147 (2016)
- Comment: in case the DFPT prediction of effective masses is used.
- Strong suggestion to cite this paper in your publications.
- DOI and bibtex: see https://docs.abinit.org/theory/bibliography/#laflamme2016
-
- [2] Libxc: A library of exchange and correlation functionals for density functional theory.
- M.A.L. Marques, M.J.T. Oliveira, T. Burnus, Computer Physics Communications 183, 2227 (2012).
- Comment: to be cited when LibXC is used (negative value of ixc)
- Strong suggestion to cite this paper.
- DOI and bibtex: see https://docs.abinit.org/theory/bibliography/#marques2012
-
- [3] The Abinit project: Impact, environment and recent developments.
- Computer Phys. Comm. 248, 107042 (2020).
- X.Gonze, B. Amadon, G. Antonius, F.Arnardi, L.Baguet, J.-M.Beuken,
- J.Bieder, F.Bottin, J.Bouchet, E.Bousquet, N.Brouwer, F.Bruneval,
- G.Brunin, T.Cavignac, J.-B. Charraud, Wei Chen, M.Cote, S.Cottenier,
- J.Denier, G.Geneste, Ph.Ghosez, M.Giantomassi, Y.Gillet, O.Gingras,
- D.R.Hamann, G.Hautier, Xu He, N.Helbig, N.Holzwarth, Y.Jia, F.Jollet,
- W.Lafargue-Dit-Hauret, K.Lejaeghere, M.A.L.Marques, A.Martin, C.Martins,
- H.P.C. Miranda, F.Naccarato, K. Persson, G.Petretto, V.Planes, Y.Pouillon,
- S.Prokhorenko, F.Ricci, G.-M.Rignanese, A.H.Romero, M.M.Schmitt, M.Torrent,
- M.J.van Setten, B.Van Troeye, M.J.Verstraete, G.Zerah and J.W.Zwanzig
- Comment: the fifth generic paper describing the ABINIT project.
- Note that a version of this paper, that is not formatted for Computer Phys. Comm. 
- is available at https://www.abinit.org/sites/default/files/ABINIT20.pdf .
- The licence allows the authors to put it on the Web.
- DOI and bibtex: see https://docs.abinit.org/theory/bibliography/#gonze2020
-
- [4] First-principles responses of solids to atomic displacements and homogeneous electric fields:,
- implementation of a conjugate-gradient algorithm. X. Gonze, Phys. Rev. B55, 10337 (1997).
- Comment: Non-vanishing rfphon and/or rfelfd, in the norm-conserving case.
- DOI and bibtex: see https://docs.abinit.org/theory/bibliography/#gonze1997
-
- [5] Dynamical matrices, Born effective charges, dielectric permittivity tensors, and ,
- interatomic force constants from density-functional perturbation theory,
- X. Gonze and C. Lee, Phys. Rev. B55, 10355 (1997).
- Comment: Non-vanishing rfphon and/or rfelfd, in the norm-conserving case.
- DOI and bibtex: see https://docs.abinit.org/theory/bibliography/#gonze1997a
-
- [6] Optimized norm-conserving Vanderbilt pseudopotentials.
- D.R. Hamann, Phys. Rev. B 88, 085117 (2013).
- Comment: Some pseudopotential generated using the ONCVPSP code were used.
- DOI and bibtex: see https://docs.abinit.org/theory/bibliography/#hamann2013
-
- [7] ABINIT: Overview, and focus on selected capabilities
- J. Chem. Phys. 152, 124102 (2020).
- A. Romero, D.C. Allan, B. Amadon, G. Antonius, T. Applencourt, L.Baguet,
- J.Bieder, F.Bottin, J.Bouchet, E.Bousquet, F.Bruneval,
- G.Brunin, D.Caliste, M.Cote,
- J.Denier, C. Dreyer, Ph.Ghosez, M.Giantomassi, Y.Gillet, O.Gingras,
- D.R.Hamann, G.Hautier, F.Jollet, G. Jomard,
- A.Martin, 
- H.P.C. Miranda, F.Naccarato, G.Petretto, N.A. Pike, V.Planes,
- S.Prokhorenko, T. Rangel, F.Ricci, G.-M.Rignanese, M.Royo, M.Stengel, M.Torrent,
- M.J.van Setten, B.Van Troeye, M.J.Verstraete, J.Wiktor, J.W.Zwanziger, and X.Gonze.
- Comment: a global overview of ABINIT, with focus on selected capabilities .
- Note that a version of this paper, that is not formatted for J. Chem. Phys 
- is available at https://www.abinit.org/sites/default/files/ABINIT20_JPC.pdf .
- The licence allows the authors to put it on the Web.
- DOI and bibtex: see https://docs.abinit.org/theory/bibliography/#romero2020
-
- [8] Recent developments in the ABINIT software package.
- Computer Phys. Comm. 205, 106 (2016).
- X.Gonze, F.Jollet, F.Abreu Araujo, D.Adams, B.Amadon, T.Applencourt,
- C.Audouze, J.-M.Beuken, J.Bieder, A.Bokhanchuk, E.Bousquet, F.Bruneval
- D.Caliste, M.Cote, F.Dahm, F.Da Pieve, M.Delaveau, M.Di Gennaro,
- B.Dorado, C.Espejo, G.Geneste, L.Genovese, A.Gerossier, M.Giantomassi,
- Y.Gillet, D.R.Hamann, L.He, G.Jomard, J.Laflamme Janssen, S.Le Roux,
- A.Levitt, A.Lherbier, F.Liu, I.Lukacevic, A.Martin, C.Martins,
- M.J.T.Oliveira, S.Ponce, Y.Pouillon, T.Rangel, G.-M.Rignanese,
- A.H.Romero, B.Rousseau, O.Rubel, A.A.Shukri, M.Stankovski, M.Torrent,
- M.J.Van Setten, B.Van Troeye, M.J.Verstraete, D.Waroquier, J.Wiktor,
- B.Xu, A.Zhou, J.W.Zwanziger.
- Comment: the fourth generic paper describing the ABINIT project.
- Note that a version of this paper, that is not formatted for Computer Phys. Comm. 
- is available at https://www.abinit.org/sites/default/files/ABINIT16.pdf .
- The licence allows the authors to put it on the Web.
- DOI and bibtex: see https://docs.abinit.org/theory/bibliography/#gonze2016
-
- Proc.   0 individual time (sec): cpu=        341.6  wall=        345.9
 
================================================================================
 
 Calculation completed.
.Delivered   2 WARNINGs and  11 COMMENTs to log file.
+Overall time at end (sec) : cpu=        341.6  wall=        345.9
