
.Version 9.5.2 of ABINIT 
.(MPI version, prepared for a x86_64_linux_intel19.1 computer) 

.Copyright (C) 1998-2021 ABINIT group . 
 ABINIT comes with ABSOLUTELY NO WARRANTY.
 It is free software, and you are welcome to redistribute it
 under certain conditions (GNU General Public License,
 see ~abinit/COPYING or http://www.gnu.org/copyleft/gpl.txt).

 ABINIT is a project of the Universite Catholique de Louvain,
 Corning Inc. and other collaborators, see ~abinit/doc/developers/contributors.txt .
 Please read https://docs.abinit.org/theory/acknowledgments for suggested
 acknowledgments of the ABINIT effort.
 For more information, see https://www.abinit.org .

.Starting date : Mon 24 May 2021.
- ( at 11h52 )
  
- input  file    -> /scratch/users/j/a/jabreu/flow_simple_10atoms/flow/w367/t1/run.abi
- output file    -> /scratch/users/j/a/jabreu/flow_simple_10atoms/flow/w367/t1/run.abo
- root for input  files -> /scratch/users/j/a/jabreu/flow_simple_10atoms/flow/w367/t1/indata/in
- root for output files -> /scratch/users/j/a/jabreu/flow_simple_10atoms/flow/w367/t1/outdata/out
 
 
 Symmetries : space group R-3 (#148); Bravais hR (rhombohedral)
================================================================================
 Values of the parameters that define the memory need of the present run (RF).
     intxc =       0      iscf =       7    lmnmax =      18     lnmax =       6
     mgfft =      64  mpssoang =       3    mqgrid =    3001     natom =      10
  nloc_mem =       1    nspden =       1   nspinor =       1    nsppol =       1
      nsym =       6    n1xccc =    2501    ntypat =       3    occopt =       1
   xclevel =       2
-    mband =          45        mffmem =           1         mkmem =           2
-   mkqmem =           2        mk1mem =           2           mpw =        9063
      nfft =      262144          nkpt =           2
================================================================================
P This job should need less than                     183.487 Mbytes of memory.
  Rough estimation (10% accuracy) of disk space for files :
_ WF disk file :     12.448 Mbytes ; DEN or POT disk file :      2.002 Mbytes.
================================================================================
 
--------------------------------------------------------------------------------
------------- Echo of variables that govern the present computation ------------
--------------------------------------------------------------------------------
-
- outvars: echo of selected default values                                      
-   iomode0 =  0 , fftalg0 =512 , wfoptalg0 =  0
-
- outvars: echo of global parameters not present in the input file              
-  max_nthreads =    0
-
 -outvars: echo values of preprocessed input variables --------
            acell      1.0000000000E+00  1.0000000000E+00  1.0000000000E+00 Bohr
              amu      6.94100000E+00  7.49215900E+01  1.59994000E+01
             ecut      4.40000000E+01 Hartree
-          fftalg         512
           irdden           1
           irdwfk           1
           istwfk        0    1
              ixc     -116133
              kpt      1.74841830E-01  0.00000000E+00 -1.74841830E-01
                       0.00000000E+00  0.00000000E+00  0.00000000E+00
           kptopt           0
P           mkmem           2
P          mkqmem           2
P          mk1mem           2
            natom          10
            nband          45
           nbdbuf           4
            ngfft          64      64      64
             nkpt           2
            nstep        2000
             nsym           6
           ntypat           3
              occ      2.000000  2.000000  2.000000  2.000000  2.000000  2.000000
                       2.000000  2.000000  2.000000  2.000000  2.000000  2.000000
                       2.000000  2.000000  2.000000  2.000000  2.000000  2.000000
                       2.000000  2.000000  2.000000  2.000000  2.000000  2.000000
                       2.000000  2.000000  2.000000  2.000000  2.000000  2.000000
                       2.000000  2.000000  2.000000  2.000000  2.000000  2.000000
                       0.000000  0.000000  0.000000  0.000000  0.000000  0.000000
                       0.000000  0.000000  0.000000
        optdriver           1
            prtwf          -1
            rfdir           1       1       1
           rfelfd           2
            rprim      8.2011631475E+00  0.0000000000E+00  6.3856215176E+00
                       3.1210193471E+00  7.5840830169E+00  6.3856215176E+00
                       0.0000000000E+00  0.0000000000E+00  1.0394000151E+01
          spgroup         148
           symrel      1  0  0   0  1  0   0  0  1      -1  0  0   0 -1  0   0  0 -1
                       0  0  1   1  0  0   0  1  0       0  0 -1  -1  0  0   0 -1  0
                       0  1  0   0  0  1   1  0  0       0 -1  0   0  0 -1  -1  0  0
           tolwfr      1.00000000E-20
            typat      1  1  2  2  3  3  3  3  3  3
           useylm           1
              wtk        0.50000    0.50000
           xangst      5.1941958320E+00  3.4792949518E+00  1.0627351190E+01
                       7.9724509560E-01  5.3402892885E-01  1.6311675357E+00
                       3.9626012264E+00  2.6543201082E+00  8.1075023391E+00
                       2.0288397012E+00  1.3590037724E+00  4.1510163864E+00
                       1.4448165751E+00  2.8282294719E+00  5.0740352795E+00
                       2.0589597484E+00  2.5979850809E-01  5.6147484706E+00
                       2.1902247975E+00  2.2081548790E+00  8.0012506218E+00
                       4.5466243525E+00  1.1850944087E+00  7.1844834460E+00
                       3.9324811792E+00  3.7535253725E+00  6.6437702549E+00
                       3.8012161301E+00  1.8051690015E+00  4.2572681037E+00
            xcart      9.8156076031E+00  6.5749145943E+00  2.0082783267E+01
                       1.5065748915E+00  1.0091684226E+00  3.0824599193E+00
                       7.4882310917E+00  5.0159380735E+00  1.5320959043E+01
                       3.8339514029E+00  2.5681449434E+00  7.8442841434E+00
                       2.7303076393E+00  5.3445791428E+00  9.5885370669E+00
                       3.8908700432E+00  4.9094803002E-01  1.0610336915E+01
                       4.1389250367E+00  4.1728079804E+00  1.5120172396E+01
                       8.5918748553E+00  2.2395038741E+00  1.3576706119E+01
                       7.4313124514E+00  7.0931349869E+00  1.2554906272E+01
                       7.1832574579E+00  3.4112750365E+00  8.0450707903E+00
             xred      8.6693600000E-01  8.6693600000E-01  8.6693600000E-01
                       1.3306400000E-01  1.3306400000E-01  1.3306400000E-01
                       6.6137700000E-01  6.6137700000E-01  6.6137700000E-01
                       3.3862300000E-01  3.3862300000E-01  3.3862300000E-01
                       6.4734000000E-02  7.0471000000E-01  4.4979400000E-01
                       4.4979400000E-01  6.4734000000E-02  7.0471000000E-01
                       2.9529000000E-01  5.5020600000E-01  9.3526600000E-01
                       9.3526600000E-01  2.9529000000E-01  5.5020600000E-01
                       5.5020600000E-01  9.3526600000E-01  2.9529000000E-01
                       7.0471000000E-01  4.4979400000E-01  6.4734000000E-02
            znucl        3.00000   33.00000    8.00000
 
================================================================================
 
 chkinp: Checking input parameters for consistency.
 
================================================================================
== DATASET  1 ==================================================================
-   mpi_nproc: 1, omp_nthreads: -1 (-1 if OMP is not activated)
 

--- !DatasetInfo
iteration_state: {dtset: 1, }
dimensions: {natom: 10, nkpt: 2, mband: 45, nsppol: 1, nspinor: 1, nspden: 1, mpw: 9063, }
cutoff_energies: {ecut:  44.0, pawecutdg:  -1.0, }
electrons: {nelect:   7.20000000E+01, charge:   0.00000000E+00, occopt:   1.00000000E+00, tsmear:   1.00000000E-02, }
meta: {optdriver: 1, rfelfd: 2, }
...

 Real(R)+Recip(G) space primitive vectors, cartesian coordinates (Bohr,Bohr^-1):
 R(1)=  8.2011631  0.0000000  6.3856215  G(1)=  0.1219339 -0.0501785  0.0000000
 R(2)=  3.1210193  7.5840830  6.3856215  G(2)=  0.0000000  0.1318551  0.0000000
 R(3)=  0.0000000  0.0000000 10.3940002  G(3)= -0.0749109 -0.0501785  0.0962094
 Unit cell volume ucvol=  6.4648916E+02 bohr^3
 Angles (23,13,12)=  5.20948229E+01  5.20948229E+01  5.20948229E+01 degrees
 
 getcut: wavevector=  0.0000  0.0000  0.0000  ngfft=  64  64  64
         ecut(hartree)=     44.000   => boxcut(ratio)=   2.06235
 
--- Pseudopotential description ------------------------------------------------
- pspini: atom type   1  psp file is /scratch/users/j/a/jabreu/pseudos/PBEsol/Li.psp8
- pspatm: opening atomic psp file    /scratch/users/j/a/jabreu/pseudos/PBEsol/Li.psp8
- Li    ONCVPSP-3.3.0  r_core=   1.40824   1.10935
-  3.00000   3.00000    180112                znucl, zion, pspdat
    8 -116133    1    4       400   0.00000   pspcod,pspxc,lmax,lloc,mmax,r2well
    3.99000000000000    0.00000000000000    0.00000000000000   rchrg,fchrg,qchrg
     nproj     2     2
     extension_switch     1
  pspatm : epsatm=    2.60859637
         --- l  ekb(1:nproj) -->
             0   -4.855856   -1.482423
             1   -2.171544   -0.427615
 pspatm: atomic psp has been read  and splines computed
 
- pspini: atom type   2  psp file is /scratch/users/j/a/jabreu/pseudos/PBEsol/As.psp8
- pspatm: opening atomic psp file    /scratch/users/j/a/jabreu/pseudos/PBEsol/As.psp8
- As    ONCVPSP-3.3.0  r_core=   1.76603   1.70395   1.80867
- 33.00000  15.00000    180112                znucl, zion, pspdat
    8 -116133    2    4       600   0.00000   pspcod,pspxc,lmax,lloc,mmax,r2well
    5.99000000000000    5.00000000000000    0.00000000000000   rchrg,fchrg,qchrg
     nproj     2     2     2
     extension_switch     1
  pspatm : epsatm=   28.79155382
         --- l  ekb(1:nproj) -->
             0    8.270760    0.868950
             1    4.919053    0.756587
             2  -10.048665   -4.076802
 pspatm: atomic psp has been read  and splines computed
 
- pspini: atom type   3  psp file is /scratch/users/j/a/jabreu/pseudos/PBEsol/O.psp8
- pspatm: opening atomic psp file    /scratch/users/j/a/jabreu/pseudos/PBEsol/O.psp8
- O     ONCVPSP-3.3.0  r_core=   1.35509   1.45563   1.26150
-  8.00000   6.00000    180112                znucl, zion, pspdat
    8 -116133    2    4       600   0.00000   pspcod,pspxc,lmax,lloc,mmax,r2well
    5.99000000000000    4.00000000000000    0.00000000000000   rchrg,fchrg,qchrg
     nproj     2     2     1
     extension_switch     1
  pspatm : epsatm=    6.22910522
         --- l  ekb(1:nproj) -->
             0    6.050032    0.820363
             1   -4.739617   -1.153841
             2   -1.335834
 pspatm: atomic psp has been read  and splines computed
 
   7.21259508E+03                                ecore*ucvol(ha*bohr**3)
--------------------------------------------------------------------------------
 
 
 ==>  initialize data related to q vector <== 
 
 The list of irreducible perturbations for this q vector is:
    1)    idir= 1    ipert=  11
    2)    idir= 2    ipert=  11
    3)    idir= 3    ipert=  11
 
================================================================================
 
--------------------------------------------------------------------------------
 Perturbation wavevector (in red.coord.)   0.000000  0.000000  0.000000
 Perturbation : derivative vs k along direction   1
 
 dfpt_looppert : COMMENT -
  In a d/dk calculation, iscf is set to -3 automatically.
 The set of symmetries contains only one element for this perturbation.
 symkpt : not enough symmetry to change the number of k points.
 
--------------------------------------------------------------------------------
 
--------------------------------------------------------------------------------
 
 Initialisation of the first-order wave-functions :
  ireadwf=   0

--- !BeginCycle
iteration_state: {dtset: 1, }
solver: {iscf: 7, nstep: 2000, nline: 4, wfoptalg: 0, }
tolerances: {tolwfr: 1.00E-20, }
...
 
     iter   2DEtotal(Ha)        deltaE(Ha) residm    vres2
-ETOT  1  -83.901217917229     -8.390E+01 1.111E-01 0.000E+00
 ETOT  2  -83.987183641303     -8.597E-02 1.821E-02 0.000E+00
 ETOT  3  -83.987479171668     -2.955E-04 7.356E-04 0.000E+00
 ETOT  4  -83.987481990255     -2.819E-06 2.578E-04 0.000E+00
 ETOT  5  -83.987482025614     -3.536E-08 2.154E-05 0.000E+00
 ETOT  6  -83.987482026123     -5.086E-10 6.083E-06 0.000E+00
 ETOT  7  -83.987482026131     -7.873E-12 6.832E-07 0.000E+00
 ETOT  8  -83.987482026131     -9.948E-14 1.979E-07 0.000E+00
 ETOT  9  -83.987482026131     -5.684E-14 2.188E-08 0.000E+00
 ETOT 10  -83.987482026131      0.000E+00 6.530E-09 0.000E+00
 ETOT 11  -83.987482026131      0.000E+00 7.188E-10 0.000E+00
 ETOT 12  -83.987482026131     -2.842E-14 2.171E-10 0.000E+00
 ETOT 13  -83.987482026131      2.842E-14 2.383E-11 0.000E+00
 ETOT 14  -83.987482026131      0.000E+00 7.249E-12 0.000E+00
 ETOT 15  -83.987482026131     -2.842E-14 7.941E-13 0.000E+00
 ETOT 16  -83.987482026131      2.842E-14 2.427E-13 0.000E+00
 ETOT 17  -83.987482026131     -2.842E-14 2.655E-14 0.000E+00
 ETOT 18  -83.987482026131      0.000E+00 8.143E-15 0.000E+00
 ETOT 19  -83.987482026131      0.000E+00 8.902E-16 0.000E+00
 ETOT 20  -83.987482026131      2.842E-14 2.736E-16 0.000E+00
 ETOT 21  -83.987482026131      0.000E+00 2.991E-17 0.000E+00
 ETOT 22  -83.987482026131      0.000E+00 9.209E-18 0.000E+00
 ETOT 23  -83.987482026131      2.842E-14 1.007E-18 0.000E+00
 ETOT 24  -83.987482026131     -2.842E-14 3.103E-19 0.000E+00
 ETOT 25  -83.987482026131     -5.684E-14 3.393E-20 0.000E+00
 ETOT 26  -83.987482026131      2.842E-14 1.047E-20 0.000E+00
 ETOT 27  -83.987482026131     -2.842E-14 9.667E-21 0.000E+00
 
 At SCF step   27   max residual=  9.67E-21 < tolwfr=  1.00E-20 =>converged.
================================================================================
 
 ----iterations are completed or convergence reached----
 
 dfpt_looppert: DFPT cycle converged with prtwf=-1. Will skip output of the 1st-order WFK file.
 dfpt_looppert : ek2=    9.8836207468E+01
          f-sum rule ratio=    1.0304053055E+00
 prteigrs : about to open file /scratch/users/j/a/jabreu/flow_simple_10atoms/flow/w367/t1/tmpdata/tmp_1WF1_EIG
 Expectation of eigenvalue derivatives (hartree) for nkpt=   2  k points:
  (in case of degenerate eigenvalues, averaged derivative)
 kpt#   1, nband= 45, wtk=  0.50000, kpt=  0.1748  0.0000 -0.1748 (reduced coord)
   0.00060   -0.00058   -0.00237    0.00020    0.00015    0.00250   -0.00093   -0.00038
  -0.00073    0.00078    0.00070    0.00017    0.08640   -0.14332   -0.02694    0.04319
  -0.05054    0.01240    0.18831   -0.08205    0.04578   -0.01396    0.05662    0.08027
   0.12451   -0.19546   -0.21169    0.03078    0.07416   -0.06599   -0.02150    0.02213
  -0.01511    0.00413   -0.00380    0.00311    0.10366   -0.03166   -0.04731    0.08902
  -0.10848    0.01211    0.13015    0.01098   -0.07899
 prteigrs : prtvol=0 or 1, do not print more k-points.
 
 
 Eight components of 2nd-order total energy (hartree) are
 1,2,3: 0th-order hamiltonian combined with 1st-order wavefunctions
     kin0=   9.88404791E+01 eigvalue=   9.23995617E+00  local=  -3.54062793E+01
 4,5,6: 1st-order hamiltonian combined with 1st and 0th-order wfs
     kin1=  -1.01841353E+02  Hartree=   0.00000000E+00     xc=   0.00000000E+00
 7,8,9: eventually, occupation + non-local contributions
    edocc=   1.15527621E+01     enl0=  -2.39435968E-01   enl1=  -6.61336115E+01
 1-9 gives the relaxation energy (to be shifted if some occ is /=2.0)
   erelax=  -8.39874820E+01
  No Ewald or frozen-wf contrib.: the relaxation energy is the total one
 2DEtotal=   -0.8398748203E+02 Ha. Also 2DEtotal=   -0.228541561285E+04 eV
    (  non-var. 2DEtotal :   -8.3987482026E+01 Ha)
 
--------------------------------------------------------------------------------
 Perturbation wavevector (in red.coord.)   0.000000  0.000000  0.000000
 Perturbation : derivative vs k along direction   2
 The set of symmetries contains only one element for this perturbation.
 symkpt : not enough symmetry to change the number of k points.
 
--------------------------------------------------------------------------------
 
--------------------------------------------------------------------------------
 
 Initialisation of the first-order wave-functions :
  ireadwf=   0

--- !BeginCycle
iteration_state: {dtset: 1, }
solver: {iscf: 7, nstep: 2000, nline: 4, wfoptalg: 0, }
tolerances: {tolwfr: 1.00E-20, }
...
 
     iter   2DEtotal(Ha)        deltaE(Ha) residm    vres2
-ETOT  1  -84.644419485705     -8.464E+01 1.567E-01 0.000E+00
 ETOT  2  -84.732838489857     -8.842E-02 2.173E-02 0.000E+00
 ETOT  3  -84.733134758935     -2.963E-04 1.270E-03 0.000E+00
 ETOT  4  -84.733137492168     -2.733E-06 3.816E-04 0.000E+00
 ETOT  5  -84.733137526019     -3.385E-08 2.956E-05 0.000E+00
 ETOT  6  -84.733137526501     -4.829E-10 9.953E-06 0.000E+00
 ETOT  7  -84.733137526509     -7.347E-12 7.763E-07 0.000E+00
 ETOT  8  -84.733137526509     -1.847E-13 2.700E-07 0.000E+00
 ETOT  9  -84.733137526509     -1.421E-14 2.213E-08 0.000E+00
 ETOT 10  -84.733137526509      7.105E-14 7.426E-09 0.000E+00
 ETOT 11  -84.733137526509     -4.263E-14 6.183E-10 0.000E+00
 ETOT 12  -84.733137526509      0.000E+00 2.062E-10 0.000E+00
 ETOT 13  -84.733137526509      0.000E+00 1.741E-11 0.000E+00
 ETOT 14  -84.733137526509      1.421E-14 5.818E-12 0.000E+00
 ETOT 15  -84.733137526509     -1.421E-14 4.988E-13 0.000E+00
 ETOT 16  -84.733137526509      1.421E-14 1.664E-13 0.000E+00
 ETOT 17  -84.733137526509      0.000E+00 1.448E-14 0.000E+00
 ETOT 18  -84.733137526509     -1.421E-14 4.821E-15 0.000E+00
 ETOT 19  -84.733137526509      4.263E-14 4.693E-16 0.000E+00
 ETOT 20  -84.733137526509     -2.842E-14 1.471E-16 0.000E+00
 ETOT 21  -84.733137526509      0.000E+00 1.693E-17 0.000E+00
 ETOT 22  -84.733137526509      1.421E-14 5.311E-18 0.000E+00
 ETOT 23  -84.733137526509     -1.421E-14 6.117E-19 0.000E+00
 ETOT 24  -84.733137526509      0.000E+00 1.920E-19 0.000E+00
 ETOT 25  -84.733137526509     -1.421E-14 2.214E-20 0.000E+00
 ETOT 26  -84.733137526509      0.000E+00 9.939E-21 0.000E+00
 
 At SCF step   26   max residual=  9.94E-21 < tolwfr=  1.00E-20 =>converged.
================================================================================
 
 ----iterations are completed or convergence reached----
 
 dfpt_looppert: DFPT cycle converged with prtwf=-1. Will skip output of the 1st-order WFK file.
 dfpt_looppert : ek2=    9.8836207468E+01
          f-sum rule ratio=    1.0500510083E+00
 prteigrs : about to open file /scratch/users/j/a/jabreu/flow_simple_10atoms/flow/w367/t1/tmpdata/tmp_1WF1_EIG
 Expectation of eigenvalue derivatives (hartree) for nkpt=   2  k points:
  (in case of degenerate eigenvalues, averaged derivative)
 kpt#   1, nband= 45, wtk=  0.50000, kpt=  0.1748  0.0000 -0.1748 (reduced coord)
  -0.00000    0.00000   -0.00001    0.00005   -0.00015    0.00015    0.00007   -0.00060
   0.00051   -0.00021    0.00021   -0.00003   -0.00002    0.00045   -0.00114    0.00057
   0.00187   -0.00191    0.00177   -0.00348   -0.00455   -0.00129    0.03104   -0.01574
  -0.01556    0.00053    0.07009   -0.05782   -0.00529   -0.02642    0.02293   -0.02222
   0.02450    0.01208   -0.01250    0.00181   -0.00200    0.00038    0.00362    0.00648
   0.01702    0.06117   -0.10481    0.00054   -0.00335
 prteigrs : prtvol=0 or 1, do not print more k-points.
 
 
 Eight components of 2nd-order total energy (hartree) are
 1,2,3: 0th-order hamiltonian combined with 1st-order wavefunctions
     kin0=   9.90726485E+01 eigvalue=   9.18512724E+00  local=  -3.54727616E+01
 4,5,6: 1st-order hamiltonian combined with 1st and 0th-order wfs
     kin1=  -1.03783059E+02  Hartree=   0.00000000E+00     xc=   0.00000000E+00
 7,8,9: eventually, occupation + non-local contributions
    edocc=   1.22720350E+01     enl0=  -3.23911635E-01   enl1=  -6.56832157E+01
 1-9 gives the relaxation energy (to be shifted if some occ is /=2.0)
   erelax=  -8.47331375E+01
  No Ewald or frozen-wf contrib.: the relaxation energy is the total one
 2DEtotal=   -0.8473313753E+02 Ha. Also 2DEtotal=   -0.230570593090E+04 eV
    (  non-var. 2DEtotal :   -8.4733137526E+01 Ha)
 
--------------------------------------------------------------------------------
 Perturbation wavevector (in red.coord.)   0.000000  0.000000  0.000000
 Perturbation : derivative vs k along direction   3
 The set of symmetries contains only one element for this perturbation.
 symkpt : not enough symmetry to change the number of k points.
 
--------------------------------------------------------------------------------
 
--------------------------------------------------------------------------------
 
 Initialisation of the first-order wave-functions :
  ireadwf=   0

--- !BeginCycle
iteration_state: {dtset: 1, }
solver: {iscf: 7, nstep: 2000, nline: 4, wfoptalg: 0, }
tolerances: {tolwfr: 1.00E-20, }
...
 
     iter   2DEtotal(Ha)        deltaE(Ha) residm    vres2
-ETOT  1  -83.903410768062     -8.390E+01 1.551E-01 0.000E+00
 ETOT  2  -83.990554763596     -8.714E-02 2.791E-02 0.000E+00
 ETOT  3  -83.990851603621     -2.968E-04 1.254E-03 0.000E+00
 ETOT  4  -83.990854378288     -2.775E-06 4.777E-04 0.000E+00
 ETOT  5  -83.990854412315     -3.403E-08 2.998E-05 0.000E+00
 ETOT  6  -83.990854412793     -4.780E-10 1.048E-05 0.000E+00
 ETOT  7  -83.990854412800     -7.304E-12 7.533E-07 0.000E+00
 ETOT  8  -83.990854412800     -1.279E-13 2.672E-07 0.000E+00
 ETOT  9  -83.990854412800      1.421E-14 1.937E-08 0.000E+00
 ETOT 10  -83.990854412800      5.684E-14 6.756E-09 0.000E+00
 ETOT 11  -83.990854412800     -4.263E-14 4.983E-10 0.000E+00
 ETOT 12  -83.990854412800      0.000E+00 1.718E-10 0.000E+00
 ETOT 13  -83.990854412800      0.000E+00 1.950E-11 0.000E+00
 ETOT 14  -83.990854412800      0.000E+00 4.400E-12 0.000E+00
 ETOT 15  -83.990854412800     -1.421E-14 8.047E-13 0.000E+00
 ETOT 16  -83.990854412800      0.000E+00 1.774E-13 0.000E+00
 ETOT 17  -83.990854412800      0.000E+00 3.334E-14 0.000E+00
 ETOT 18  -83.990854412800      1.421E-14 7.421E-15 0.000E+00
 ETOT 19  -83.990854412800      0.000E+00 1.385E-15 0.000E+00
 ETOT 20  -83.990854412800      1.421E-14 3.104E-16 0.000E+00
 ETOT 21  -83.990854412800      0.000E+00 5.756E-17 0.000E+00
 ETOT 22  -83.990854412800      0.000E+00 1.298E-17 0.000E+00
 ETOT 23  -83.990854412800     -2.842E-14 2.395E-18 0.000E+00
 ETOT 24  -83.990854412800      2.842E-14 5.431E-19 0.000E+00
 ETOT 25  -83.990854412800      0.000E+00 9.972E-20 0.000E+00
 ETOT 26  -83.990854412800     -4.263E-14 2.271E-20 0.000E+00
 ETOT 27  -83.990854412800      1.421E-14 9.552E-21 0.000E+00
 
 At SCF step   27   max residual=  9.55E-21 < tolwfr=  1.00E-20 =>converged.
================================================================================
 
 ----iterations are completed or convergence reached----
 
 dfpt_looppert: DFPT cycle converged with prtwf=-1. Will skip output of the 1st-order WFK file.
 dfpt_looppert : ek2=    9.8836207469E+01
          f-sum rule ratio=    1.0300389374E+00
 prteigrs : about to open file /scratch/users/j/a/jabreu/flow_simple_10atoms/flow/w367/t1/tmpdata/tmp_1WF1_EIG
 Expectation of eigenvalue derivatives (hartree) for nkpt=   2  k points:
  (in case of degenerate eigenvalues, averaged derivative)
 kpt#   1, nband= 45, wtk=  0.50000, kpt=  0.1748  0.0000 -0.1748 (reduced coord)
  -0.00060    0.00058    0.00239   -0.00025   -0.00000   -0.00265    0.00086    0.00098
   0.00022   -0.00057   -0.00091   -0.00015   -0.08643    0.14358    0.02649   -0.04225
   0.04710   -0.00970   -0.18769    0.08160   -0.04607   -0.00629   -0.07470   -0.02844
  -0.11844    0.16632    0.16188    0.06059   -0.09135    0.02438    0.07506   -0.01480
  -0.00691   -0.02737    0.00699    0.00552   -0.11328    0.04221    0.05731   -0.11692
   0.09766   -0.07134   -0.02411   -0.00448    0.07466
 prteigrs : prtvol=0 or 1, do not print more k-points.
 
 
 Eight components of 2nd-order total energy (hartree) are
 1,2,3: 0th-order hamiltonian combined with 1st-order wavefunctions
     kin0=   9.86770157E+01 eigvalue=   9.22146845E+00  local=  -3.52958121E+01
 4,5,6: 1st-order hamiltonian combined with 1st and 0th-order wfs
     kin1=  -1.01805142E+02  Hartree=   0.00000000E+00     xc=   0.00000000E+00
 7,8,9: eventually, occupation + non-local contributions
    edocc=   1.15998968E+01     enl0=  -2.11714422E-01   enl1=  -6.61765667E+01
 1-9 gives the relaxation energy (to be shifted if some occ is /=2.0)
   erelax=  -8.39908544E+01
  No Ewald or frozen-wf contrib.: the relaxation energy is the total one
 2DEtotal=   -0.8399085441E+02 Ha. Also 2DEtotal=   -0.228550738016E+04 eV
    (  non-var. 2DEtotal :   -8.3990854413E+01 Ha)
 
 CALCULATION OF EFFECTIVE MASSES
 NOTE : Additional infos (eff. mass eigenvalues, eigenvectors and, if degenerate, average mass) are available in stdout.
 
--- !WARNING
src_file: m_efmas.F90
src_line: 0
message: |
    
    Band(s)    36,
    are not band extrema, but saddle points;
    the transport equivalent formalism breaks down in these conditions.
    The associated tensor(s) will therefore not be printed.
...
 

 K-point ( 0.175, 0.000,-0.175) | band =    36
 Effective mass tensor:
     *** SADDLE POINT: TRANSPORT EQV. EFF. MASS NOT DEFINED (see WARNING above) ***
 Angular average effective mass 1/(<1/m>)=  -3.8080321822
 Angular average effective mass for Frohlich model (<m**0.5>)**2=  -8.3172328691
 Effective masses along directions: (cart. coord. / red. coord. -> eff. mass)
    1:   1.000000  0.000000  0.000000 /   0.934610  0.355674  0.000000 ->  -2.5060201537
    2:   0.000000  1.000000  0.000000 /   0.000000  1.000000  0.000000 -> -18.4794629138
    3:   0.000000  0.000000  1.000000 /   0.463765  0.463765  0.754880 ->  -2.9881497278
    4:   0.577350  0.577350  0.577350 /   0.589202  0.690343  0.419843 ->  -1.9349992288
    5:   0.000000  0.707107  0.707107 /   0.344308  0.753235  0.560436 ->  -4.9787550056
    6:   0.707107  0.000000  0.707107 /   0.719350  0.468822  0.512582 ->  -1.8653804462
    7:   0.707107  0.707107  0.000000 /   0.608147  0.793824  0.000000 ->  -2.3139511375

 K-point ( 0.000, 0.000, 0.000) | band =    37
 Effective mass tensor:
              0.5124028451              0.0314359136              0.0960195826
              0.0314359136              0.4865299251              0.0643178153
              0.0960195826              0.0643178153              0.6619292344
 Effective mass tensor eigenvalues:
              0.4654725574              0.4654729315              0.7299165158
 Angular average effective mass 1/(<1/m>)=   0.5294061568
 Angular average effective mass for Frohlich model (<m**0.5>)**2=   0.5359802375
 Effective masses along directions: (cart. coord. / red. coord. -> eff. mass)
    1:   1.000000  0.000000  0.000000 /   0.934610  0.355674  0.000000 ->   0.4974567505
    2:   0.000000  1.000000  0.000000 /   0.000000  1.000000  0.000000 ->   0.4793000042
    3:   0.000000  0.000000  1.000000 /   0.463765  0.463765  0.754880 ->   0.6368916673
    4:   0.577350  0.577350  0.577350 /   0.589202  0.690343  0.419843 ->   0.6611076433
    5:   0.000000  0.707107  0.707107 /   0.344308  0.753235  0.560436 ->   0.6101485210
    6:   0.707107  0.000000  0.707107 /   0.719350  0.468822  0.512582 ->   0.6633225728
    7:   0.707107  0.707107  0.000000 /   0.608147  0.793824  0.000000 ->   0.5113061419

 END OF EFFECTIVE MASSES SECTION

================================================================================
 
 ---- first-order wavefunction calculations are completed ----
 
 
 Total localisation tensor (bohr^2) in cartesian coordinates
  WARNING : still subject to testing - especially symmetries.
      direction              matrix element
   alpha     beta       real part   imaginary part
     1        1       0.8518117026    0.0000000000
     1        2       0.2733734589    0.0000000000
     1        3       0.8058204084    0.0000000000
     2        1       0.2733734589    0.0000000000
     2        2       0.6642980310    0.0000000000
     2        3       0.5593234926    0.0000000000
     3        1       0.8058204084    0.0000000000
     3        2       0.5593234926    0.0000000000
     3        3       2.1050634468    0.0000000000
 
 respfn : d/dk was computed, but no 2DTE, so no DDB output.
 
== END DATASET(S) ==============================================================
================================================================================
  
 -outvars: echo values of variables after computation  --------
            acell      1.0000000000E+00  1.0000000000E+00  1.0000000000E+00 Bohr
              amu      6.94100000E+00  7.49215900E+01  1.59994000E+01
             ecut      4.40000000E+01 Hartree
           etotal     -8.3990854413E+01
            fcart      0.0000000000E+00  0.0000000000E+00  0.0000000000E+00
                       0.0000000000E+00  0.0000000000E+00  0.0000000000E+00
                       0.0000000000E+00  0.0000000000E+00  0.0000000000E+00
                       0.0000000000E+00  0.0000000000E+00  0.0000000000E+00
                       0.0000000000E+00  0.0000000000E+00  0.0000000000E+00
                       0.0000000000E+00  0.0000000000E+00  0.0000000000E+00
                       0.0000000000E+00  0.0000000000E+00  0.0000000000E+00
                       0.0000000000E+00  0.0000000000E+00  0.0000000000E+00
                       0.0000000000E+00  0.0000000000E+00  0.0000000000E+00
                       0.0000000000E+00  0.0000000000E+00  0.0000000000E+00
-          fftalg         512
           irdden           1
           irdwfk           1
           istwfk        0    1
              ixc     -116133
              kpt      1.74841830E-01  0.00000000E+00 -1.74841830E-01
                       0.00000000E+00  0.00000000E+00  0.00000000E+00
           kptopt           0
P           mkmem           2
P          mkqmem           2
P          mk1mem           2
            natom          10
            nband          45
           nbdbuf           4
            ngfft          64      64      64
             nkpt           2
            nstep        2000
             nsym           6
           ntypat           3
              occ      2.000000  2.000000  2.000000  2.000000  2.000000  2.000000
                       2.000000  2.000000  2.000000  2.000000  2.000000  2.000000
                       2.000000  2.000000  2.000000  2.000000  2.000000  2.000000
                       2.000000  2.000000  2.000000  2.000000  2.000000  2.000000
                       2.000000  2.000000  2.000000  2.000000  2.000000  2.000000
                       2.000000  2.000000  2.000000  2.000000  2.000000  2.000000
                       0.000000  0.000000  0.000000  0.000000  0.000000  0.000000
                       0.000000  0.000000  0.000000
        optdriver           1
            prtwf          -1
            rfdir           1       1       1
           rfelfd           2
            rprim      8.2011631475E+00  0.0000000000E+00  6.3856215176E+00
                       3.1210193471E+00  7.5840830169E+00  6.3856215176E+00
                       0.0000000000E+00  0.0000000000E+00  1.0394000151E+01
          spgroup         148
           strten      0.0000000000E+00  0.0000000000E+00  0.0000000000E+00
                       0.0000000000E+00  0.0000000000E+00  0.0000000000E+00
           symrel      1  0  0   0  1  0   0  0  1      -1  0  0   0 -1  0   0  0 -1
                       0  0  1   1  0  0   0  1  0       0  0 -1  -1  0  0   0 -1  0
                       0  1  0   0  0  1   1  0  0       0 -1  0   0  0 -1  -1  0  0
           tolwfr      1.00000000E-20
            typat      1  1  2  2  3  3  3  3  3  3
           useylm           1
              wtk        0.50000    0.50000
           xangst      5.1941958320E+00  3.4792949518E+00  1.0627351190E+01
                       7.9724509560E-01  5.3402892885E-01  1.6311675357E+00
                       3.9626012264E+00  2.6543201082E+00  8.1075023391E+00
                       2.0288397012E+00  1.3590037724E+00  4.1510163864E+00
                       1.4448165751E+00  2.8282294719E+00  5.0740352795E+00
                       2.0589597484E+00  2.5979850809E-01  5.6147484706E+00
                       2.1902247975E+00  2.2081548790E+00  8.0012506218E+00
                       4.5466243525E+00  1.1850944087E+00  7.1844834460E+00
                       3.9324811792E+00  3.7535253725E+00  6.6437702549E+00
                       3.8012161301E+00  1.8051690015E+00  4.2572681037E+00
            xcart      9.8156076031E+00  6.5749145943E+00  2.0082783267E+01
                       1.5065748915E+00  1.0091684226E+00  3.0824599193E+00
                       7.4882310917E+00  5.0159380735E+00  1.5320959043E+01
                       3.8339514029E+00  2.5681449434E+00  7.8442841434E+00
                       2.7303076393E+00  5.3445791428E+00  9.5885370669E+00
                       3.8908700432E+00  4.9094803002E-01  1.0610336915E+01
                       4.1389250367E+00  4.1728079804E+00  1.5120172396E+01
                       8.5918748553E+00  2.2395038741E+00  1.3576706119E+01
                       7.4313124514E+00  7.0931349869E+00  1.2554906272E+01
                       7.1832574579E+00  3.4112750365E+00  8.0450707903E+00
             xred      8.6693600000E-01  8.6693600000E-01  8.6693600000E-01
                       1.3306400000E-01  1.3306400000E-01  1.3306400000E-01
                       6.6137700000E-01  6.6137700000E-01  6.6137700000E-01
                       3.3862300000E-01  3.3862300000E-01  3.3862300000E-01
                       6.4734000000E-02  7.0471000000E-01  4.4979400000E-01
                       4.4979400000E-01  6.4734000000E-02  7.0471000000E-01
                       2.9529000000E-01  5.5020600000E-01  9.3526600000E-01
                       9.3526600000E-01  2.9529000000E-01  5.5020600000E-01
                       5.5020600000E-01  9.3526600000E-01  2.9529000000E-01
                       7.0471000000E-01  4.4979400000E-01  6.4734000000E-02
            znucl        3.00000   33.00000    8.00000
 
================================================================================


- Timing analysis has been suppressed with timopt=0



================================================================================

 Suggested references for the acknowledgment of ABINIT usage.

 The users of ABINIT have little formal obligations with respect to the ABINIT group
 (those specified in the GNU General Public License, http://www.gnu.org/copyleft/gpl.txt).
 However, it is common practice in the scientific literature,
 to acknowledge the efforts of people that have made the research possible.
 In this spirit, please find below suggested citations of work written by ABINIT developers,
 corresponding to implementations inside of ABINIT that you have used in the present run.
 Note also that it will be of great value to readers of publications presenting these results,
 to read papers enabling them to understand the theoretical formalism and details
 of the ABINIT implementation.
 For information on why they are suggested, see also https://docs.abinit.org/theory/acknowledgments.
-
- [1] Precise effective masses from density functional perturbation theory
- J. Laflamme Janssen, Y. Gillet, S. Ponce, A. Martin, M. Torrent, and X. Gonze. Phys. Rev. B 93, 205147 (2016)
- Comment: in case the DFPT prediction of effective masses is used.
- Strong suggestion to cite this paper in your publications.
- DOI and bibtex: see https://docs.abinit.org/theory/bibliography/#laflamme2016
-
- [2] Libxc: A library of exchange and correlation functionals for density functional theory.
- M.A.L. Marques, M.J.T. Oliveira, T. Burnus, Computer Physics Communications 183, 2227 (2012).
- Comment: to be cited when LibXC is used (negative value of ixc)
- Strong suggestion to cite this paper.
- DOI and bibtex: see https://docs.abinit.org/theory/bibliography/#marques2012
-
- [3] The Abinit project: Impact, environment and recent developments.
- Computer Phys. Comm. 248, 107042 (2020).
- X.Gonze, B. Amadon, G. Antonius, F.Arnardi, L.Baguet, J.-M.Beuken,
- J.Bieder, F.Bottin, J.Bouchet, E.Bousquet, N.Brouwer, F.Bruneval,
- G.Brunin, T.Cavignac, J.-B. Charraud, Wei Chen, M.Cote, S.Cottenier,
- J.Denier, G.Geneste, Ph.Ghosez, M.Giantomassi, Y.Gillet, O.Gingras,
- D.R.Hamann, G.Hautier, Xu He, N.Helbig, N.Holzwarth, Y.Jia, F.Jollet,
- W.Lafargue-Dit-Hauret, K.Lejaeghere, M.A.L.Marques, A.Martin, C.Martins,
- H.P.C. Miranda, F.Naccarato, K. Persson, G.Petretto, V.Planes, Y.Pouillon,
- S.Prokhorenko, F.Ricci, G.-M.Rignanese, A.H.Romero, M.M.Schmitt, M.Torrent,
- M.J.van Setten, B.Van Troeye, M.J.Verstraete, G.Zerah and J.W.Zwanzig
- Comment: the fifth generic paper describing the ABINIT project.
- Note that a version of this paper, that is not formatted for Computer Phys. Comm. 
- is available at https://www.abinit.org/sites/default/files/ABINIT20.pdf .
- The licence allows the authors to put it on the Web.
- DOI and bibtex: see https://docs.abinit.org/theory/bibliography/#gonze2020
-
- [4] First-principles responses of solids to atomic displacements and homogeneous electric fields:,
- implementation of a conjugate-gradient algorithm. X. Gonze, Phys. Rev. B55, 10337 (1997).
- Comment: Non-vanishing rfphon and/or rfelfd, in the norm-conserving case.
- DOI and bibtex: see https://docs.abinit.org/theory/bibliography/#gonze1997
-
- [5] Dynamical matrices, Born effective charges, dielectric permittivity tensors, and ,
- interatomic force constants from density-functional perturbation theory,
- X. Gonze and C. Lee, Phys. Rev. B55, 10355 (1997).
- Comment: Non-vanishing rfphon and/or rfelfd, in the norm-conserving case.
- DOI and bibtex: see https://docs.abinit.org/theory/bibliography/#gonze1997a
-
- [6] Optimized norm-conserving Vanderbilt pseudopotentials.
- D.R. Hamann, Phys. Rev. B 88, 085117 (2013).
- Comment: Some pseudopotential generated using the ONCVPSP code were used.
- DOI and bibtex: see https://docs.abinit.org/theory/bibliography/#hamann2013
-
- [7] ABINIT: Overview, and focus on selected capabilities
- J. Chem. Phys. 152, 124102 (2020).
- A. Romero, D.C. Allan, B. Amadon, G. Antonius, T. Applencourt, L.Baguet,
- J.Bieder, F.Bottin, J.Bouchet, E.Bousquet, F.Bruneval,
- G.Brunin, D.Caliste, M.Cote,
- J.Denier, C. Dreyer, Ph.Ghosez, M.Giantomassi, Y.Gillet, O.Gingras,
- D.R.Hamann, G.Hautier, F.Jollet, G. Jomard,
- A.Martin, 
- H.P.C. Miranda, F.Naccarato, G.Petretto, N.A. Pike, V.Planes,
- S.Prokhorenko, T. Rangel, F.Ricci, G.-M.Rignanese, M.Royo, M.Stengel, M.Torrent,
- M.J.van Setten, B.Van Troeye, M.J.Verstraete, J.Wiktor, J.W.Zwanziger, and X.Gonze.
- Comment: a global overview of ABINIT, with focus on selected capabilities .
- Note that a version of this paper, that is not formatted for J. Chem. Phys 
- is available at https://www.abinit.org/sites/default/files/ABINIT20_JPC.pdf .
- The licence allows the authors to put it on the Web.
- DOI and bibtex: see https://docs.abinit.org/theory/bibliography/#romero2020
-
- [8] Recent developments in the ABINIT software package.
- Computer Phys. Comm. 205, 106 (2016).
- X.Gonze, F.Jollet, F.Abreu Araujo, D.Adams, B.Amadon, T.Applencourt,
- C.Audouze, J.-M.Beuken, J.Bieder, A.Bokhanchuk, E.Bousquet, F.Bruneval
- D.Caliste, M.Cote, F.Dahm, F.Da Pieve, M.Delaveau, M.Di Gennaro,
- B.Dorado, C.Espejo, G.Geneste, L.Genovese, A.Gerossier, M.Giantomassi,
- Y.Gillet, D.R.Hamann, L.He, G.Jomard, J.Laflamme Janssen, S.Le Roux,
- A.Levitt, A.Lherbier, F.Liu, I.Lukacevic, A.Martin, C.Martins,
- M.J.T.Oliveira, S.Ponce, Y.Pouillon, T.Rangel, G.-M.Rignanese,
- A.H.Romero, B.Rousseau, O.Rubel, A.A.Shukri, M.Stankovski, M.Torrent,
- M.J.Van Setten, B.Van Troeye, M.J.Verstraete, D.Waroquier, J.Wiktor,
- B.Xu, A.Zhou, J.W.Zwanziger.
- Comment: the fourth generic paper describing the ABINIT project.
- Note that a version of this paper, that is not formatted for Computer Phys. Comm. 
- is available at https://www.abinit.org/sites/default/files/ABINIT16.pdf .
- The licence allows the authors to put it on the Web.
- DOI and bibtex: see https://docs.abinit.org/theory/bibliography/#gonze2016
-
- Proc.   0 individual time (sec): cpu=        235.0  wall=        238.1
 
================================================================================
 
 Calculation completed.
.Delivered   3 WARNINGs and   5 COMMENTs to log file.
+Overall time at end (sec) : cpu=        235.0  wall=        238.1
