
.Version 9.5.2 of ABINIT 
.(MPI version, prepared for a x86_64_linux_intel19.1 computer) 

.Copyright (C) 1998-2021 ABINIT group . 
 ABINIT comes with ABSOLUTELY NO WARRANTY.
 It is free software, and you are welcome to redistribute it
 under certain conditions (GNU General Public License,
 see ~abinit/COPYING or http://www.gnu.org/copyleft/gpl.txt).

 ABINIT is a project of the Universite Catholique de Louvain,
 Corning Inc. and other collaborators, see ~abinit/doc/developers/contributors.txt .
 Please read https://docs.abinit.org/theory/acknowledgments for suggested
 acknowledgments of the ABINIT effort.
 For more information, see https://www.abinit.org .

.Starting date : Mon 24 May 2021.
- ( at 10h49 )
  
- input  file    -> /scratch/users/j/a/jabreu/flow_simple_10atoms/flow/w261/t1/run.abi
- output file    -> /scratch/users/j/a/jabreu/flow_simple_10atoms/flow/w261/t1/run.abo
- root for input  files -> /scratch/users/j/a/jabreu/flow_simple_10atoms/flow/w261/t1/indata/in
- root for output files -> /scratch/users/j/a/jabreu/flow_simple_10atoms/flow/w261/t1/outdata/out
 
 
 Symmetries : space group Fm -3 m (#225); Bravais cF (face-center cubic)
================================================================================
 Values of the parameters that define the memory need of the present run (RF).
     intxc =       0      iscf =       7    lmnmax =      18     lnmax =       6
     mgfft =      72  mpssoang =       3    mqgrid =    3001     natom =      10
  nloc_mem =       1    nspden =       1   nspinor =       1    nsppol =       1
      nsym =      48    n1xccc =    2501    ntypat =       4    occopt =       1
   xclevel =       2
-    mband =          54        mffmem =           1         mkmem =           1
-   mkqmem =           1        mk1mem =           1           mpw =       13952
      nfft =      373248          nkpt =           1
================================================================================
P This job should need less than                     241.197 Mbytes of memory.
  Rough estimation (10% accuracy) of disk space for files :
_ WF disk file :     11.498 Mbytes ; DEN or POT disk file :      2.850 Mbytes.
================================================================================
 
--------------------------------------------------------------------------------
------------- Echo of variables that govern the present computation ------------
--------------------------------------------------------------------------------
-
- outvars: echo of selected default values                                      
-   iomode0 =  0 , fftalg0 =512 , wfoptalg0 =  0
-
- outvars: echo of global parameters not present in the input file              
-  max_nthreads =    0
-
 -outvars: echo values of preprocessed input variables --------
            acell      1.0000000000E+00  1.0000000000E+00  1.0000000000E+00 Bohr
              amu      2.29897680E+01  2.04383300E+02  6.97230000E+01
                       1.89984032E+01
             ecut      4.40000000E+01 Hartree
-          fftalg         512
           irdden           1
           irdwfk           1
           istwfk        1
              ixc     -116133
              kpt      5.00000000E-01  0.00000000E+00  5.00000000E-01
           kptopt           0
P           mkmem           1
P          mkqmem           1
P          mk1mem           1
            natom          10
            nband          54
           nbdbuf           4
            ngfft          72      72      72
             nkpt           1
            nstep        2000
             nsym          48
           ntypat           4
              occ      2.000000  2.000000  2.000000  2.000000  2.000000  2.000000
                       2.000000  2.000000  2.000000  2.000000  2.000000  2.000000
                       2.000000  2.000000  2.000000  2.000000  2.000000  2.000000
                       2.000000  2.000000  2.000000  2.000000  2.000000  2.000000
                       2.000000  2.000000  2.000000  2.000000  2.000000  2.000000
                       2.000000  2.000000  2.000000  2.000000  2.000000  2.000000
                       2.000000  2.000000  2.000000  2.000000  2.000000  2.000000
                       2.000000  2.000000  2.000000  0.000000  0.000000  0.000000
                       0.000000  0.000000  0.000000  0.000000  0.000000  0.000000
        optdriver           1
            prtwf          -1
            rfdir           1       1       1
           rfelfd           2
            rprim      9.7228491296E+00  0.0000000000E+00  5.6134895623E+00
                       3.2409497099E+00  9.1667900693E+00  5.6134895623E+00
                       0.0000000000E+00  0.0000000000E+00  1.1226979125E+01
          spgroup         225
           symrel      1  0  0   0  1  0   0  0  1      -1  0  0   0 -1  0   0  0 -1
                       0 -1  1   0 -1  0   1 -1  0       0  1 -1   0  1  0  -1  1  0
                      -1  0  0  -1  0  1  -1  1  0       1  0  0   1  0 -1   1 -1  0
                       0  1 -1   1  0 -1   0  0 -1       0 -1  1  -1  0  1   0  0  1
                      -1  0  0  -1  1  0  -1  0  1       1  0  0   1 -1  0   1  0 -1
                       0 -1  1   1 -1  0   0 -1  0       0  1 -1  -1  1  0   0  1  0
                       1  0  0   0  0  1   0  1  0      -1  0  0   0  0 -1   0 -1  0
                       0  1 -1   0  0 -1   1  0 -1       0 -1  1   0  0  1  -1  0  1
                      -1  0  1  -1  1  0  -1  0  0       1  0 -1   1 -1  0   1  0  0
                       0 -1  0   1 -1  0   0 -1  1       0  1  0  -1  1  0   0  1 -1
                       1  0 -1   0  0 -1   0  1 -1      -1  0  1   0  0  1   0 -1  1
                       0  1  0   0  0  1   1  0  0       0 -1  0   0  0 -1  -1  0  0
                       1  0 -1   0  1 -1   0  0 -1      -1  0  1   0 -1  1   0  0  1
                       0 -1  0   0 -1  1   1 -1  0       0  1  0   0  1 -1  -1  1  0
                      -1  0  1  -1  0  0  -1  1  0       1  0 -1   1  0  0   1 -1  0
                       0  1  0   1  0  0   0  0  1       0 -1  0  -1  0  0   0  0 -1
                       0  0 -1   0  1 -1   1  0 -1       0  0  1   0 -1  1  -1  0  1
                       1 -1  0   0 -1  1   0 -1  0      -1  1  0   0  1 -1   0  1  0
                       0  0  1   1  0  0   0  1  0       0  0 -1  -1  0  0   0 -1  0
                      -1  1  0  -1  0  0  -1  0  1       1 -1  0   1  0  0   1  0 -1
                       0  0  1   0  1  0   1  0  0       0  0 -1   0 -1  0  -1  0  0
                       1 -1  0   0 -1  0   0 -1  1      -1  1  0   0  1  0   0  1 -1
                       0  0 -1   1  0 -1   0  1 -1       0  0  1  -1  0  1   0 -1  1
                      -1  1  0  -1  0  1  -1  0  0       1 -1  0   1  0 -1   1  0  0
           tolwfr      1.00000000E-20
            typat      1  2  2  3  4  4  4  4  4  4
           useylm           1
           xangst      3.4300734413E+00  2.4254281903E+00  5.9410614741E+00
                       1.7150367207E+00  1.2127140952E+00  2.9705307370E+00
                       5.1451101620E+00  3.6381422855E+00  8.9115922111E+00
                       0.0000000000E+00  0.0000000000E+00  0.0000000000E+00
                       2.4946992740E+00  3.7482470236E+00  7.5611770559E+00
                       4.3654476086E+00  1.1026093570E+00  7.5611770559E+00
                       2.4946992740E+00  3.7482470236E+00  4.3209458922E+00
                       1.5593251067E+00  1.1026093570E+00  5.9410614741E+00
                       5.3008217759E+00  3.7482470236E+00  5.9410614741E+00
                       4.3654476086E+00  1.1026093570E+00  4.3209458922E+00
            xcart      6.4818994197E+00  4.5833950346E+00  1.1226979125E+01
                       3.2409497099E+00  2.2916975173E+00  5.6134895623E+00
                       9.7228491296E+00  6.8750925520E+00  1.6840468687E+01
                       0.0000000000E+00  0.0000000000E+00  0.0000000000E+00
                       4.7142984118E+00  7.0831603530E+00  1.4288553878E+01
                       8.2495004277E+00  2.0836297163E+00  1.4288553878E+01
                       4.7142984118E+00  7.0831603530E+00  8.1654043713E+00
                       2.9466974038E+00  2.0836297163E+00  1.1226979125E+01
                       1.0017101436E+01  7.0831603530E+00  1.1226979125E+01
                       8.2495004277E+00  2.0836297163E+00  8.1654043713E+00
             xred      5.0000000000E-01  5.0000000000E-01  5.0000000000E-01
                       2.5000000000E-01  2.5000000000E-01  2.5000000000E-01
                       7.5000000000E-01  7.5000000000E-01  7.5000000000E-01
                       0.0000000000E+00  0.0000000000E+00  0.0000000000E+00
                       2.2730200000E-01  7.7269800000E-01  7.7269800000E-01
                       7.7269800000E-01  2.2730200000E-01  7.7269800000E-01
                       2.2730200000E-01  7.7269800000E-01  2.2730200000E-01
                       2.2730200000E-01  2.2730200000E-01  7.7269800000E-01
                       7.7269800000E-01  7.7269800000E-01  2.2730200000E-01
                       7.7269800000E-01  2.2730200000E-01  2.2730200000E-01
            znucl       11.00000   81.00000   31.00000    9.00000
 
================================================================================
 
 chkinp: Checking input parameters for consistency.
 
================================================================================
== DATASET  1 ==================================================================
-   mpi_nproc: 1, omp_nthreads: -1 (-1 if OMP is not activated)
 

--- !DatasetInfo
iteration_state: {dtset: 1, }
dimensions: {natom: 10, nkpt: 1, mband: 54, nsppol: 1, nspinor: 1, nspden: 1, mpw: 13952, }
cutoff_energies: {ecut:  44.0, pawecutdg:  -1.0, }
electrons: {nelect:   9.00000000E+01, charge:   0.00000000E+00, occopt:   1.00000000E+00, tsmear:   1.00000000E-02, }
meta: {optdriver: 1, rfelfd: 2, }
...

 Real(R)+Recip(G) space primitive vectors, cartesian coordinates (Bohr,Bohr^-1):
 R(1)=  9.7228491  0.0000000  5.6134896  G(1)=  0.1028505 -0.0363631  0.0000000
 R(2)=  3.2409497  9.1667901  5.6134896  G(2)=  0.0000000  0.1090894  0.0000000
 R(3)=  0.0000000  0.0000000 11.2269791  G(3)= -0.0514253 -0.0363631  0.0890712
 Unit cell volume ucvol=  1.0006305E+03 bohr^3
 Angles (23,13,12)=  6.00000000E+01  6.00000000E+01  6.00000000E+01 degrees
 
 getcut: wavevector=  0.0000  0.0000  0.0000  ngfft=  72  72  72
         ecut(hartree)=     44.000   => boxcut(ratio)=   2.14772
 
--- Pseudopotential description ------------------------------------------------
- pspini: atom type   1  psp file is /scratch/users/j/a/jabreu/pseudos/PBEsol/Na.psp8
- pspatm: opening atomic psp file    /scratch/users/j/a/jabreu/pseudos/PBEsol/Na.psp8
- Na    ONCVPSP-3.3.0  r_core=   1.20708   1.55069
- 11.00000   9.00000    180112                znucl, zion, pspdat
    8 -116133    1    4       400   0.00000   pspcod,pspxc,lmax,lloc,mmax,r2well
    3.99000000000000    0.00000000000000    0.00000000000000   rchrg,fchrg,qchrg
     nproj     2     2
     extension_switch     1
  pspatm : epsatm=    9.32878306
         --- l  ekb(1:nproj) -->
             0    2.657905   -0.678300
             1   -6.761319   -2.404728
 pspatm: atomic psp has been read  and splines computed
 
- pspini: atom type   2  psp file is /scratch/users/j/a/jabreu/pseudos/PBEsol/Tl.psp8
- pspatm: opening atomic psp file    /scratch/users/j/a/jabreu/pseudos/PBEsol/Tl.psp8
- Tl    ONCVPSP-3.3.0  r_core=   2.10510   2.60929   2.00701
- 81.00000  13.00000    180112                znucl, zion, pspdat
    8 -116133    2    4       600   0.00000   pspcod,pspxc,lmax,lloc,mmax,r2well
    5.99000000000000    7.00000000000000    0.00000000000000   rchrg,fchrg,qchrg
     nproj     2     2     2
     extension_switch     1
  pspatm : epsatm=   37.24354552
         --- l  ekb(1:nproj) -->
             0    6.297242    0.908324
             1    4.393460    0.899003
             2   -2.697741   -0.589563
 pspatm: atomic psp has been read  and splines computed
 
- pspini: atom type   3  psp file is /scratch/users/j/a/jabreu/pseudos/PBEsol/Ga.psp8
- pspatm: opening atomic psp file    /scratch/users/j/a/jabreu/pseudos/PBEsol/Ga.psp8
- Ga    ONCVPSP-3.3.0  r_core=   1.66857   1.75011   1.90252
- 31.00000  13.00000    180112                znucl, zion, pspdat
    8 -116133    2    4       600   0.00000   pspcod,pspxc,lmax,lloc,mmax,r2well
    5.99000000000000    5.00000000000000    0.00000000000000   rchrg,fchrg,qchrg
     nproj     2     2     2
     extension_switch     1
  pspatm : epsatm=   24.50969055
         --- l  ekb(1:nproj) -->
             0    7.053021    1.156713
             1    6.846070    1.293139
             2   -8.368667   -2.819170
 pspatm: atomic psp has been read  and splines computed
 
- pspini: atom type   4  psp file is /scratch/users/j/a/jabreu/pseudos/PBEsol/F.psp8
- pspatm: opening atomic psp file    /scratch/users/j/a/jabreu/pseudos/PBEsol/F.psp8
- F     ONCVPSP-3.3.0  r_core=   1.30942   1.45782   1.60379
-  9.00000   7.00000    180112                znucl, zion, pspdat
    8 -116133    2    4       600   0.00000   pspcod,pspxc,lmax,lloc,mmax,r2well
    5.99000000000000    2.50000000000000    0.00000000000000   rchrg,fchrg,qchrg
     nproj     2     2     1
     extension_switch     1
  pspatm : epsatm=    4.89824824
         --- l  ekb(1:nproj) -->
             0    6.506434    1.065875
             1   -3.978753   -1.295852
             2   -2.394754
 pspatm: atomic psp has been read  and splines computed
 
   1.23943549E+04                                ecore*ucvol(ha*bohr**3)
--------------------------------------------------------------------------------
 
 
 ==>  initialize data related to q vector <== 
 
 The list of irreducible perturbations for this q vector is:
    1)    idir= 1    ipert=  11
    2)    idir= 2    ipert=  11
    3)    idir= 3    ipert=  11
 
================================================================================
 
--------------------------------------------------------------------------------
 Perturbation wavevector (in red.coord.)   0.000000  0.000000  0.000000
 Perturbation : derivative vs k along direction   1
 
 dfpt_looppert : COMMENT -
  In a d/dk calculation, iscf is set to -3 automatically.
 The set of symmetries contains only one element for this perturbation.
 symkpt : not enough symmetry to change the number of k points.
 
--------------------------------------------------------------------------------
 
--------------------------------------------------------------------------------
 
 Initialisation of the first-order wave-functions :
  ireadwf=   0

--- !BeginCycle
iteration_state: {dtset: 1, }
solver: {iscf: 7, nstep: 2000, nline: 4, wfoptalg: 0, }
tolerances: {tolwfr: 1.00E-20, }
...
 
     iter   2DEtotal(Ha)        deltaE(Ha) residm    vres2
-ETOT  1  -70.040044185368     -7.004E+01 7.500E-02 0.000E+00
 ETOT  2  -70.089275927910     -4.923E-02 5.254E-03 0.000E+00
 ETOT  3  -70.089455259416     -1.793E-04 1.975E-04 0.000E+00
 ETOT  4  -70.089456621128     -1.362E-06 1.746E-05 0.000E+00
 ETOT  5  -70.089456635244     -1.412E-08 9.071E-07 0.000E+00
 ETOT  6  -70.089456635407     -1.631E-10 9.362E-08 0.000E+00
 ETOT  7  -70.089456635409     -1.933E-12 5.139E-09 0.000E+00
 ETOT  8  -70.089456635409     -7.105E-14 5.505E-10 0.000E+00
 ETOT  9  -70.089456635409     -1.421E-14 3.091E-11 0.000E+00
 ETOT 10  -70.089456635409     -2.842E-14 3.373E-12 0.000E+00
 ETOT 11  -70.089456635409      2.842E-14 1.923E-13 0.000E+00
 ETOT 12  -70.089456635409      0.000E+00 2.122E-14 0.000E+00
 ETOT 13  -70.089456635409      0.000E+00 1.242E-15 0.000E+00
 ETOT 14  -70.089456635409     -1.421E-14 1.392E-16 0.000E+00
 ETOT 15  -70.089456635409      1.421E-14 8.840E-18 0.000E+00
 ETOT 16  -70.089456635409     -1.421E-14 1.027E-18 0.000E+00
 ETOT 17  -70.089456635409     -1.421E-14 6.535E-20 0.000E+00
 ETOT 18  -70.089456635409      1.421E-14 9.712E-21 0.000E+00
 
 At SCF step   18   max residual=  9.71E-21 < tolwfr=  1.00E-20 =>converged.
================================================================================
 
 ----iterations are completed or convergence reached----
 
 dfpt_looppert: DFPT cycle converged with prtwf=-1. Will skip output of the 1st-order WFK file.
 dfpt_looppert : ek2=    8.4566366433E+01
          f-sum rule ratio=    1.0203469840E+00
 prteigrs : about to open file /scratch/users/j/a/jabreu/flow_simple_10atoms/flow/w261/t1/tmpdata/tmp_1WF1_EIG
 Expectation of eigenvalue derivatives (hartree) for nkpt=   1  k points:
  (in case of degenerate eigenvalues, averaged derivative)
 kpt#   1, nband= 54, wtk=  1.00000, kpt=  0.5000  0.0000  0.5000 (reduced coord)
  -0.00000    0.00000    0.00000    0.00000    0.00000    0.00000    0.00000   -0.00000
  -0.00000   -0.00000    0.00000   -0.00000   -0.00000   -0.00000   -0.00000    0.00000
   0.00000    0.00000    0.00000   -0.00000   -0.00000    0.00000    0.00000    0.00000
  -0.00000    0.00000    0.00000    0.00000   -0.00000   -0.00000    0.00000   -0.00000
  -0.00000    0.00000    0.00000    0.00000   -0.00000   -0.00000   -0.00000   -0.00000
  -0.00000   -0.00000   -0.00000   -0.00000   -0.00000    0.00000   -0.00000   -0.00000
  -0.00000    0.00000   -0.00000   -0.00000   -0.00000   -0.00001
 
 Eight components of 2nd-order total energy (hartree) are
 1,2,3: 0th-order hamiltonian combined with 1st-order wavefunctions
     kin0=   8.59717434E+01 eigvalue=   6.05156512E+00  local=  -3.66939194E+01
 4,5,6: 1st-order hamiltonian combined with 1st and 0th-order wfs
     kin1=  -8.62870369E+01  Hartree=   0.00000000E+00     xc=   0.00000000E+00
 7,8,9: eventually, occupation + non-local contributions
    edocc=   8.18581194E+00     enl0=   6.57425551E+00   enl1=  -5.38918763E+01
 1-9 gives the relaxation energy (to be shifted if some occ is /=2.0)
   erelax=  -7.00894566E+01
  No Ewald or frozen-wf contrib.: the relaxation energy is the total one
 2DEtotal=   -0.7008945664E+02 Ha. Also 2DEtotal=   -0.190723110904E+04 eV
    (  non-var. 2DEtotal :   -7.0089456635E+01 Ha)
 
--------------------------------------------------------------------------------
 Perturbation wavevector (in red.coord.)   0.000000  0.000000  0.000000
 Perturbation : derivative vs k along direction   2
 The set of symmetries contains only one element for this perturbation.
 symkpt : not enough symmetry to change the number of k points.
 
--------------------------------------------------------------------------------
 
--------------------------------------------------------------------------------
 
 Initialisation of the first-order wave-functions :
  ireadwf=   0

--- !BeginCycle
iteration_state: {dtset: 1, }
solver: {iscf: 7, nstep: 2000, nline: 4, wfoptalg: 0, }
tolerances: {tolwfr: 1.00E-20, }
...
 
     iter   2DEtotal(Ha)        deltaE(Ha) residm    vres2
-ETOT  1  -70.040202696576     -7.004E+01 7.596E-02 0.000E+00
 ETOT  2  -70.089423540953     -4.922E-02 5.264E-03 0.000E+00
 ETOT  3  -70.089602571148     -1.790E-04 2.001E-04 0.000E+00
 ETOT  4  -70.089603939234     -1.368E-06 1.756E-05 0.000E+00
 ETOT  5  -70.089603953656     -1.442E-08 9.230E-07 0.000E+00
 ETOT  6  -70.089603953826     -1.704E-10 9.436E-08 0.000E+00
 ETOT  7  -70.089603953828     -2.032E-12 5.247E-09 0.000E+00
 ETOT  8  -70.089603953828      0.000E+00 5.564E-10 0.000E+00
 ETOT  9  -70.089603953828     -2.842E-14 3.166E-11 0.000E+00
 ETOT 10  -70.089603953828      1.421E-14 3.419E-12 0.000E+00
 ETOT 11  -70.089603953828      1.421E-14 1.975E-13 0.000E+00
 ETOT 12  -70.089603953828     -1.421E-14 2.155E-14 0.000E+00
 ETOT 13  -70.089603953828      0.000E+00 1.270E-15 0.000E+00
 ETOT 14  -70.089603953828     -2.842E-14 1.404E-16 0.000E+00
 ETOT 15  -70.089603953828      2.842E-14 8.953E-18 0.000E+00
 ETOT 16  -70.089603953828      0.000E+00 1.022E-18 0.000E+00
 ETOT 17  -70.089603953828      0.000E+00 6.599E-20 0.000E+00
 ETOT 18  -70.089603953828      2.842E-14 9.662E-21 0.000E+00
 
 At SCF step   18   max residual=  9.66E-21 < tolwfr=  1.00E-20 =>converged.
================================================================================
 
 ----iterations are completed or convergence reached----
 
 dfpt_looppert: DFPT cycle converged with prtwf=-1. Will skip output of the 1st-order WFK file.
 dfpt_looppert : ek2=    8.4566366433E+01
          f-sum rule ratio=    1.0203521804E+00
 prteigrs : about to open file /scratch/users/j/a/jabreu/flow_simple_10atoms/flow/w261/t1/tmpdata/tmp_1WF1_EIG
 Expectation of eigenvalue derivatives (hartree) for nkpt=   1  k points:
  (in case of degenerate eigenvalues, averaged derivative)
 kpt#   1, nband= 54, wtk=  1.00000, kpt=  0.5000  0.0000  0.5000 (reduced coord)
   0.00000   -0.00000   -0.00000   -0.00000   -0.00000   -0.00000   -0.00000    0.00000
   0.00000   -0.00000    0.00000    0.00000    0.00000   -0.00000    0.00000   -0.00000
  -0.00000    0.00000    0.00000    0.00000    0.00000    0.00000    0.00000    0.00000
   0.00000   -0.00000    0.00000   -0.00000   -0.00000   -0.00000   -0.00000    0.00000
   0.00000   -0.00000    0.00000    0.00000    0.00000    0.00000   -0.00000   -0.00000
  -0.00000   -0.00000    0.00000    0.00000    0.00000    0.00000    0.00000    0.00000
   0.00000   -0.00000    0.00000    0.00000   -0.00000    0.00002
 
 Eight components of 2nd-order total energy (hartree) are
 1,2,3: 0th-order hamiltonian combined with 1st-order wavefunctions
     kin0=   8.59636301E+01 eigvalue=   6.05186694E+00  local=  -3.66869427E+01
 4,5,6: 1st-order hamiltonian combined with 1st and 0th-order wfs
     kin1=  -8.62874764E+01  Hartree=   0.00000000E+00     xc=   0.00000000E+00
 7,8,9: eventually, occupation + non-local contributions
    edocc=   8.18790269E+00     enl0=   6.57314700E+00   enl1=  -5.38917315E+01
 1-9 gives the relaxation energy (to be shifted if some occ is /=2.0)
   erelax=  -7.00896040E+01
  No Ewald or frozen-wf contrib.: the relaxation energy is the total one
 2DEtotal=   -0.7008960395E+02 Ha. Also 2DEtotal=   -0.190723511778E+04 eV
    (  non-var. 2DEtotal :   -7.0089603953E+01 Ha)
 
--------------------------------------------------------------------------------
 Perturbation wavevector (in red.coord.)   0.000000  0.000000  0.000000
 Perturbation : derivative vs k along direction   3
 The set of symmetries contains only one element for this perturbation.
 symkpt : not enough symmetry to change the number of k points.
 
--------------------------------------------------------------------------------
 
--------------------------------------------------------------------------------
 
 Initialisation of the first-order wave-functions :
  ireadwf=   0

--- !BeginCycle
iteration_state: {dtset: 1, }
solver: {iscf: 7, nstep: 2000, nline: 4, wfoptalg: 0, }
tolerances: {tolwfr: 1.00E-20, }
...
 
     iter   2DEtotal(Ha)        deltaE(Ha) residm    vres2
-ETOT  1  -70.040280493790     -7.004E+01 7.640E-02 0.000E+00
 ETOT  2  -70.089495418905     -4.921E-02 5.268E-03 0.000E+00
 ETOT  3  -70.089674306657     -1.789E-04 2.014E-04 0.000E+00
 ETOT  4  -70.089675660662     -1.354E-06 1.760E-05 0.000E+00
 ETOT  5  -70.089675674637     -1.398E-08 9.303E-07 0.000E+00
 ETOT  6  -70.089675674798     -1.608E-10 9.470E-08 0.000E+00
 ETOT  7  -70.089675674800     -2.046E-12 5.297E-09 0.000E+00
 ETOT  8  -70.089675674800     -2.842E-14 5.590E-10 0.000E+00
 ETOT  9  -70.089675674800      5.684E-14 3.201E-11 0.000E+00
 ETOT 10  -70.089675674800     -2.842E-14 3.440E-12 0.000E+00
 ETOT 11  -70.089675674800      1.421E-14 1.999E-13 0.000E+00
 ETOT 12  -70.089675674800      1.421E-14 2.171E-14 0.000E+00
 ETOT 13  -70.089675674800      0.000E+00 1.286E-15 0.000E+00
 ETOT 14  -70.089675674800     -1.421E-14 1.413E-16 0.000E+00
 ETOT 15  -70.089675674800      0.000E+00 9.021E-18 0.000E+00
 ETOT 16  -70.089675674800      1.421E-14 1.023E-18 0.000E+00
 ETOT 17  -70.089675674800      0.000E+00 6.646E-20 0.000E+00
 ETOT 18  -70.089675674800     -2.842E-14 9.635E-21 0.000E+00
 
 At SCF step   18   max residual=  9.64E-21 < tolwfr=  1.00E-20 =>converged.
================================================================================
 
 ----iterations are completed or convergence reached----
 
 dfpt_looppert: DFPT cycle converged with prtwf=-1. Will skip output of the 1st-order WFK file.
 dfpt_looppert : ek2=    8.4566366432E+01
          f-sum rule ratio=    1.0203542164E+00
 prteigrs : about to open file /scratch/users/j/a/jabreu/flow_simple_10atoms/flow/w261/t1/tmpdata/tmp_1WF1_EIG
 Expectation of eigenvalue derivatives (hartree) for nkpt=   1  k points:
  (in case of degenerate eigenvalues, averaged derivative)
 kpt#   1, nband= 54, wtk=  1.00000, kpt=  0.5000  0.0000  0.5000 (reduced coord)
  -0.00000    0.00000    0.00000   -0.00000   -0.00000    0.00000   -0.00000   -0.00000
  -0.00000    0.00000   -0.00000   -0.00000   -0.00000   -0.00000    0.00000   -0.00000
  -0.00000   -0.00000   -0.00000    0.00000    0.00000   -0.00000   -0.00000   -0.00000
   0.00000   -0.00000   -0.00000   -0.00000    0.00000    0.00000   -0.00000    0.00000
   0.00000   -0.00000   -0.00000   -0.00000    0.00000   -0.00000    0.00000    0.00000
   0.00000    0.00000    0.00000    0.00000   -0.00000   -0.00000    0.00000    0.00000
   0.00000    0.00000   -0.00000   -0.00000    0.00000   -0.00002
 
 Eight components of 2nd-order total energy (hartree) are
 1,2,3: 0th-order hamiltonian combined with 1st-order wavefunctions
     kin0=   8.59598634E+01 eigvalue=   6.05200821E+00  local=  -3.66836917E+01
 4,5,6: 1st-order hamiltonian combined with 1st and 0th-order wfs
     kin1=  -8.62876486E+01  Hartree=   0.00000000E+00     xc=   0.00000000E+00
 7,8,9: eventually, occupation + non-local contributions
    edocc=   8.18885732E+00     enl0=   6.57263853E+00   enl1=  -5.38917028E+01
 1-9 gives the relaxation energy (to be shifted if some occ is /=2.0)
   erelax=  -7.00896757E+01
  No Ewald or frozen-wf contrib.: the relaxation energy is the total one
 2DEtotal=   -0.7008967567E+02 Ha. Also 2DEtotal=   -0.190723706941E+04 eV
    (  non-var. 2DEtotal :   -7.0089675674E+01 Ha)
 
 CALCULATION OF EFFECTIVE MASSES
 NOTE : Additional infos (eff. mass eigenvalues, eigenvectors and, if degenerate, average mass) are available in stdout.

 K-point ( 0.500, 0.000, 0.500) | band =    45
 Effective mass tensor:
             -9.0708721175             -2.4482381262              2.9984670933
             -2.4482381262             -7.3397063364             -4.2404728074
              2.9984670933             -4.2404728074             -5.6085406053
 Effective mass tensor eigenvalues:
            -10.8020379170            -10.8020378940             -0.4150432481
 Angular average effective mass 1/(<1/m>)=  -1.1562753485
 Angular average effective mass for Frohlich model (<m**0.5>)**2=  -2.3091015997
 Effective masses along directions: (cart. coord. / red. coord. -> eff. mass)
    1:   1.000000  0.000000  0.000000 /   0.948683  0.316228  0.000000 ->  -2.0889451204
    2:   0.000000  1.000000  0.000000 /   0.000000  1.000000  0.000000 ->  -1.1562753452
    3:   0.000000  0.000000  1.000000 /   0.408248  0.408248  0.816497 ->  -0.7993724673
    4:   0.577350  0.577350  0.577350 /   0.585539  0.688047  0.428644 ->  -3.1634731919
    5:   0.000000  0.707107  0.707107 /   0.289489  0.762222  0.578977 ->  -8.9222843040
    6:   0.707107  0.000000  0.707107 /   0.731423  0.422287  0.535439 ->  -0.6520383941
    7:   0.707107  0.707107  0.000000 /   0.616798  0.787122  0.000000 ->  -7.9554302763

 K-point ( 0.500, 0.000, 0.500) | band =    46
 Effective mass tensor:
              0.6825801283              0.1132385829             -0.1386884383
              0.1132385829              0.6025226939              0.1961230799
             -0.1386884383              0.1961230799              0.5224550750
 Effective mass tensor eigenvalues:
              0.2822449787              0.7626562123              0.7626567061
 Angular average effective mass 1/(<1/m>)=   0.4865837410
 Angular average effective mass for Frohlich model (<m**0.5>)**2=   0.5238656545
 Effective masses along directions: (cart. coord. / red. coord. -> eff. mass)
    1:   1.000000  0.000000  0.000000 /   0.948683  0.316228  0.000000 ->   0.5941021975
    2:   0.000000  1.000000  0.000000 /   0.000000  1.000000  0.000000 ->   0.4865875289
    3:   0.000000  0.000000  1.000000 /   0.408248  0.408248  0.816497 ->   0.4120154710
    4:   0.577350  0.577350  0.577350 /   0.585539  0.688047  0.428644 ->   0.6550698941
    5:   0.000000  0.707107  0.707107 /   0.289489  0.762222  0.578977 ->   0.7518825691
    6:   0.707107  0.000000  0.707107 /   0.731423  0.422287  0.535439 ->   0.3704460830
    7:   0.707107  0.707107  0.000000 /   0.616798  0.787122  0.000000 ->   0.7445428945

 END OF EFFECTIVE MASSES SECTION

================================================================================
 
 ---- first-order wavefunction calculations are completed ----
 
 
 Total localisation tensor (bohr^2) in cartesian coordinates
  WARNING : still subject to testing - especially symmetries.
      direction              matrix element
   alpha     beta       real part   imaginary part
     1        1       0.8370629049    0.0000000000
     1        2       0.2367590999    0.0000000000
     1        3       0.5799349913    0.0000000000
     2        1       0.2367590999    0.0000000000
     2        2       0.6696558602    0.0000000000
     2        3       0.4100787902    0.0000000000
     3        1       0.5799349913    0.0000000000
     3        2       0.4100787902    0.0000000000
     3        3       1.5067275752    0.0000000000
 
 respfn : d/dk was computed, but no 2DTE, so no DDB output.
 
== END DATASET(S) ==============================================================
================================================================================
  
 -outvars: echo values of variables after computation  --------
            acell      1.0000000000E+00  1.0000000000E+00  1.0000000000E+00 Bohr
              amu      2.29897680E+01  2.04383300E+02  6.97230000E+01
                       1.89984032E+01
             ecut      4.40000000E+01 Hartree
           etotal     -7.0089675675E+01
            fcart      0.0000000000E+00  0.0000000000E+00  0.0000000000E+00
                       0.0000000000E+00  0.0000000000E+00  0.0000000000E+00
                       0.0000000000E+00  0.0000000000E+00  0.0000000000E+00
                       0.0000000000E+00  0.0000000000E+00  0.0000000000E+00
                       0.0000000000E+00  0.0000000000E+00  0.0000000000E+00
                       0.0000000000E+00  0.0000000000E+00  0.0000000000E+00
                       0.0000000000E+00  0.0000000000E+00  0.0000000000E+00
                       0.0000000000E+00  0.0000000000E+00  0.0000000000E+00
                       0.0000000000E+00  0.0000000000E+00  0.0000000000E+00
                       0.0000000000E+00  0.0000000000E+00  0.0000000000E+00
-          fftalg         512
           irdden           1
           irdwfk           1
           istwfk        1
              ixc     -116133
              kpt      5.00000000E-01  0.00000000E+00  5.00000000E-01
           kptopt           0
P           mkmem           1
P          mkqmem           1
P          mk1mem           1
            natom          10
            nband          54
           nbdbuf           4
            ngfft          72      72      72
             nkpt           1
            nstep        2000
             nsym          48
           ntypat           4
              occ      2.000000  2.000000  2.000000  2.000000  2.000000  2.000000
                       2.000000  2.000000  2.000000  2.000000  2.000000  2.000000
                       2.000000  2.000000  2.000000  2.000000  2.000000  2.000000
                       2.000000  2.000000  2.000000  2.000000  2.000000  2.000000
                       2.000000  2.000000  2.000000  2.000000  2.000000  2.000000
                       2.000000  2.000000  2.000000  2.000000  2.000000  2.000000
                       2.000000  2.000000  2.000000  2.000000  2.000000  2.000000
                       2.000000  2.000000  2.000000  0.000000  0.000000  0.000000
                       0.000000  0.000000  0.000000  0.000000  0.000000  0.000000
        optdriver           1
            prtwf          -1
            rfdir           1       1       1
           rfelfd           2
            rprim      9.7228491296E+00  0.0000000000E+00  5.6134895623E+00
                       3.2409497099E+00  9.1667900693E+00  5.6134895623E+00
                       0.0000000000E+00  0.0000000000E+00  1.1226979125E+01
          spgroup         225
           strten      0.0000000000E+00  0.0000000000E+00  0.0000000000E+00
                       0.0000000000E+00  0.0000000000E+00  0.0000000000E+00
           symrel      1  0  0   0  1  0   0  0  1      -1  0  0   0 -1  0   0  0 -1
                       0 -1  1   0 -1  0   1 -1  0       0  1 -1   0  1  0  -1  1  0
                      -1  0  0  -1  0  1  -1  1  0       1  0  0   1  0 -1   1 -1  0
                       0  1 -1   1  0 -1   0  0 -1       0 -1  1  -1  0  1   0  0  1
                      -1  0  0  -1  1  0  -1  0  1       1  0  0   1 -1  0   1  0 -1
                       0 -1  1   1 -1  0   0 -1  0       0  1 -1  -1  1  0   0  1  0
                       1  0  0   0  0  1   0  1  0      -1  0  0   0  0 -1   0 -1  0
                       0  1 -1   0  0 -1   1  0 -1       0 -1  1   0  0  1  -1  0  1
                      -1  0  1  -1  1  0  -1  0  0       1  0 -1   1 -1  0   1  0  0
                       0 -1  0   1 -1  0   0 -1  1       0  1  0  -1  1  0   0  1 -1
                       1  0 -1   0  0 -1   0  1 -1      -1  0  1   0  0  1   0 -1  1
                       0  1  0   0  0  1   1  0  0       0 -1  0   0  0 -1  -1  0  0
                       1  0 -1   0  1 -1   0  0 -1      -1  0  1   0 -1  1   0  0  1
                       0 -1  0   0 -1  1   1 -1  0       0  1  0   0  1 -1  -1  1  0
                      -1  0  1  -1  0  0  -1  1  0       1  0 -1   1  0  0   1 -1  0
                       0  1  0   1  0  0   0  0  1       0 -1  0  -1  0  0   0  0 -1
                       0  0 -1   0  1 -1   1  0 -1       0  0  1   0 -1  1  -1  0  1
                       1 -1  0   0 -1  1   0 -1  0      -1  1  0   0  1 -1   0  1  0
                       0  0  1   1  0  0   0  1  0       0  0 -1  -1  0  0   0 -1  0
                      -1  1  0  -1  0  0  -1  0  1       1 -1  0   1  0  0   1  0 -1
                       0  0  1   0  1  0   1  0  0       0  0 -1   0 -1  0  -1  0  0
                       1 -1  0   0 -1  0   0 -1  1      -1  1  0   0  1  0   0  1 -1
                       0  0 -1   1  0 -1   0  1 -1       0  0  1  -1  0  1   0 -1  1
                      -1  1  0  -1  0  1  -1  0  0       1 -1  0   1  0 -1   1  0  0
           tolwfr      1.00000000E-20
            typat      1  2  2  3  4  4  4  4  4  4
           useylm           1
           xangst      3.4300734413E+00  2.4254281903E+00  5.9410614741E+00
                       1.7150367207E+00  1.2127140952E+00  2.9705307370E+00
                       5.1451101620E+00  3.6381422855E+00  8.9115922111E+00
                       0.0000000000E+00  0.0000000000E+00  0.0000000000E+00
                       2.4946992740E+00  3.7482470236E+00  7.5611770559E+00
                       4.3654476086E+00  1.1026093570E+00  7.5611770559E+00
                       2.4946992740E+00  3.7482470236E+00  4.3209458922E+00
                       1.5593251067E+00  1.1026093570E+00  5.9410614741E+00
                       5.3008217759E+00  3.7482470236E+00  5.9410614741E+00
                       4.3654476086E+00  1.1026093570E+00  4.3209458922E+00
            xcart      6.4818994197E+00  4.5833950346E+00  1.1226979125E+01
                       3.2409497099E+00  2.2916975173E+00  5.6134895623E+00
                       9.7228491296E+00  6.8750925520E+00  1.6840468687E+01
                       0.0000000000E+00  0.0000000000E+00  0.0000000000E+00
                       4.7142984118E+00  7.0831603530E+00  1.4288553878E+01
                       8.2495004277E+00  2.0836297163E+00  1.4288553878E+01
                       4.7142984118E+00  7.0831603530E+00  8.1654043713E+00
                       2.9466974038E+00  2.0836297163E+00  1.1226979125E+01
                       1.0017101436E+01  7.0831603530E+00  1.1226979125E+01
                       8.2495004277E+00  2.0836297163E+00  8.1654043713E+00
             xred      5.0000000000E-01  5.0000000000E-01  5.0000000000E-01
                       2.5000000000E-01  2.5000000000E-01  2.5000000000E-01
                       7.5000000000E-01  7.5000000000E-01  7.5000000000E-01
                       0.0000000000E+00  0.0000000000E+00  0.0000000000E+00
                       2.2730200000E-01  7.7269800000E-01  7.7269800000E-01
                       7.7269800000E-01  2.2730200000E-01  7.7269800000E-01
                       2.2730200000E-01  7.7269800000E-01  2.2730200000E-01
                       2.2730200000E-01  2.2730200000E-01  7.7269800000E-01
                       7.7269800000E-01  7.7269800000E-01  2.2730200000E-01
                       7.7269800000E-01  2.2730200000E-01  2.2730200000E-01
            znucl       11.00000   81.00000   31.00000    9.00000
 
================================================================================


- Timing analysis has been suppressed with timopt=0



================================================================================

 Suggested references for the acknowledgment of ABINIT usage.

 The users of ABINIT have little formal obligations with respect to the ABINIT group
 (those specified in the GNU General Public License, http://www.gnu.org/copyleft/gpl.txt).
 However, it is common practice in the scientific literature,
 to acknowledge the efforts of people that have made the research possible.
 In this spirit, please find below suggested citations of work written by ABINIT developers,
 corresponding to implementations inside of ABINIT that you have used in the present run.
 Note also that it will be of great value to readers of publications presenting these results,
 to read papers enabling them to understand the theoretical formalism and details
 of the ABINIT implementation.
 For information on why they are suggested, see also https://docs.abinit.org/theory/acknowledgments.
-
- [1] Precise effective masses from density functional perturbation theory
- J. Laflamme Janssen, Y. Gillet, S. Ponce, A. Martin, M. Torrent, and X. Gonze. Phys. Rev. B 93, 205147 (2016)
- Comment: in case the DFPT prediction of effective masses is used.
- Strong suggestion to cite this paper in your publications.
- DOI and bibtex: see https://docs.abinit.org/theory/bibliography/#laflamme2016
-
- [2] Libxc: A library of exchange and correlation functionals for density functional theory.
- M.A.L. Marques, M.J.T. Oliveira, T. Burnus, Computer Physics Communications 183, 2227 (2012).
- Comment: to be cited when LibXC is used (negative value of ixc)
- Strong suggestion to cite this paper.
- DOI and bibtex: see https://docs.abinit.org/theory/bibliography/#marques2012
-
- [3] The Abinit project: Impact, environment and recent developments.
- Computer Phys. Comm. 248, 107042 (2020).
- X.Gonze, B. Amadon, G. Antonius, F.Arnardi, L.Baguet, J.-M.Beuken,
- J.Bieder, F.Bottin, J.Bouchet, E.Bousquet, N.Brouwer, F.Bruneval,
- G.Brunin, T.Cavignac, J.-B. Charraud, Wei Chen, M.Cote, S.Cottenier,
- J.Denier, G.Geneste, Ph.Ghosez, M.Giantomassi, Y.Gillet, O.Gingras,
- D.R.Hamann, G.Hautier, Xu He, N.Helbig, N.Holzwarth, Y.Jia, F.Jollet,
- W.Lafargue-Dit-Hauret, K.Lejaeghere, M.A.L.Marques, A.Martin, C.Martins,
- H.P.C. Miranda, F.Naccarato, K. Persson, G.Petretto, V.Planes, Y.Pouillon,
- S.Prokhorenko, F.Ricci, G.-M.Rignanese, A.H.Romero, M.M.Schmitt, M.Torrent,
- M.J.van Setten, B.Van Troeye, M.J.Verstraete, G.Zerah and J.W.Zwanzig
- Comment: the fifth generic paper describing the ABINIT project.
- Note that a version of this paper, that is not formatted for Computer Phys. Comm. 
- is available at https://www.abinit.org/sites/default/files/ABINIT20.pdf .
- The licence allows the authors to put it on the Web.
- DOI and bibtex: see https://docs.abinit.org/theory/bibliography/#gonze2020
-
- [4] First-principles responses of solids to atomic displacements and homogeneous electric fields:,
- implementation of a conjugate-gradient algorithm. X. Gonze, Phys. Rev. B55, 10337 (1997).
- Comment: Non-vanishing rfphon and/or rfelfd, in the norm-conserving case.
- DOI and bibtex: see https://docs.abinit.org/theory/bibliography/#gonze1997
-
- [5] Dynamical matrices, Born effective charges, dielectric permittivity tensors, and ,
- interatomic force constants from density-functional perturbation theory,
- X. Gonze and C. Lee, Phys. Rev. B55, 10355 (1997).
- Comment: Non-vanishing rfphon and/or rfelfd, in the norm-conserving case.
- DOI and bibtex: see https://docs.abinit.org/theory/bibliography/#gonze1997a
-
- [6] Optimized norm-conserving Vanderbilt pseudopotentials.
- D.R. Hamann, Phys. Rev. B 88, 085117 (2013).
- Comment: Some pseudopotential generated using the ONCVPSP code were used.
- DOI and bibtex: see https://docs.abinit.org/theory/bibliography/#hamann2013
-
- [7] ABINIT: Overview, and focus on selected capabilities
- J. Chem. Phys. 152, 124102 (2020).
- A. Romero, D.C. Allan, B. Amadon, G. Antonius, T. Applencourt, L.Baguet,
- J.Bieder, F.Bottin, J.Bouchet, E.Bousquet, F.Bruneval,
- G.Brunin, D.Caliste, M.Cote,
- J.Denier, C. Dreyer, Ph.Ghosez, M.Giantomassi, Y.Gillet, O.Gingras,
- D.R.Hamann, G.Hautier, F.Jollet, G. Jomard,
- A.Martin, 
- H.P.C. Miranda, F.Naccarato, G.Petretto, N.A. Pike, V.Planes,
- S.Prokhorenko, T. Rangel, F.Ricci, G.-M.Rignanese, M.Royo, M.Stengel, M.Torrent,
- M.J.van Setten, B.Van Troeye, M.J.Verstraete, J.Wiktor, J.W.Zwanziger, and X.Gonze.
- Comment: a global overview of ABINIT, with focus on selected capabilities .
- Note that a version of this paper, that is not formatted for J. Chem. Phys 
- is available at https://www.abinit.org/sites/default/files/ABINIT20_JPC.pdf .
- The licence allows the authors to put it on the Web.
- DOI and bibtex: see https://docs.abinit.org/theory/bibliography/#romero2020
-
- [8] Recent developments in the ABINIT software package.
- Computer Phys. Comm. 205, 106 (2016).
- X.Gonze, F.Jollet, F.Abreu Araujo, D.Adams, B.Amadon, T.Applencourt,
- C.Audouze, J.-M.Beuken, J.Bieder, A.Bokhanchuk, E.Bousquet, F.Bruneval
- D.Caliste, M.Cote, F.Dahm, F.Da Pieve, M.Delaveau, M.Di Gennaro,
- B.Dorado, C.Espejo, G.Geneste, L.Genovese, A.Gerossier, M.Giantomassi,
- Y.Gillet, D.R.Hamann, L.He, G.Jomard, J.Laflamme Janssen, S.Le Roux,
- A.Levitt, A.Lherbier, F.Liu, I.Lukacevic, A.Martin, C.Martins,
- M.J.T.Oliveira, S.Ponce, Y.Pouillon, T.Rangel, G.-M.Rignanese,
- A.H.Romero, B.Rousseau, O.Rubel, A.A.Shukri, M.Stankovski, M.Torrent,
- M.J.Van Setten, B.Van Troeye, M.J.Verstraete, D.Waroquier, J.Wiktor,
- B.Xu, A.Zhou, J.W.Zwanziger.
- Comment: the fourth generic paper describing the ABINIT project.
- Note that a version of this paper, that is not formatted for Computer Phys. Comm. 
- is available at https://www.abinit.org/sites/default/files/ABINIT16.pdf .
- The licence allows the authors to put it on the Web.
- DOI and bibtex: see https://docs.abinit.org/theory/bibliography/#gonze2016
-
- Proc.   0 individual time (sec): cpu=        168.0  wall=        171.6
 
================================================================================
 
 Calculation completed.
.Delivered   2 WARNINGs and   5 COMMENTs to log file.
+Overall time at end (sec) : cpu=        168.0  wall=        171.6
